 Entering Gaussian System, Link 0=g09
 Initial command:
 /usr/local/research/Gaussian09/g09-revD.01/g09/l1.exe "/scratch/36656.heisenberg.scps.vuw.ac.nz/Gau-23175.inp" -scrdir="/scratch/36656.heisenberg.scps.vuw.ac.nz/"
 Entering Link 1 = /usr/local/research/Gaussian09/g09-revD.01/g09/l1.exe PID=     23177.
  
 Copyright (c) 1988,1990,1992,1993,1995,1998,2003,2009,2013,
            Gaussian, Inc.  All Rights Reserved.
  
 This is part of the Gaussian(R) 09 program.  It is based on
 the Gaussian(R) 03 system (copyright 2003, Gaussian, Inc.),
 the Gaussian(R) 98 system (copyright 1998, Gaussian, Inc.),
 the Gaussian(R) 94 system (copyright 1995, Gaussian, Inc.),
 the Gaussian 92(TM) system (copyright 1992, Gaussian, Inc.),
 the Gaussian 90(TM) system (copyright 1990, Gaussian, Inc.),
 the Gaussian 88(TM) system (copyright 1988, Gaussian, Inc.),
 the Gaussian 86(TM) system (copyright 1986, Carnegie Mellon
 University), and the Gaussian 82(TM) system (copyright 1983,
 Carnegie Mellon University). Gaussian is a federally registered
 trademark of Gaussian, Inc.
  
 This software contains proprietary and confidential information,
 including trade secrets, belonging to Gaussian, Inc.
  
 This software is provided under written license and may be
 used, copied, transmitted, or stored only in accord with that
 written license.
  
 The following legend is applicable only to US Government
 contracts under FAR:
  
                    RESTRICTED RIGHTS LEGEND
  
 Use, reproduction and disclosure by the US Government is
 subject to restrictions as set forth in subparagraphs (a)
 and (c) of the Commercial Computer Software - Restricted
 Rights clause in FAR 52.227-19.
  
 Gaussian, Inc.
 340 Quinnipiac St., Bldg. 40, Wallingford CT 06492
  
  
 ---------------------------------------------------------------
 Warning -- This program may not be used in any manner that
 competes with the business of Gaussian, Inc. or will provide
 assistance to any competitor of Gaussian, Inc.  The licensee
 of this program is prohibited from giving any competitor of
 Gaussian, Inc. access to this program.  By using this program,
 the user acknowledges that Gaussian, Inc. is engaged in the
 business of creating and licensing software in the field of
 computational chemistry and represents and warrants to the
 licensee that it is not a competitor of Gaussian, Inc. and that
 it will not use this program in any manner prohibited above.
 ---------------------------------------------------------------
  

 Cite this work as:
 Gaussian 09, Revision D.01,
 M. J. Frisch, G. W. Trucks, H. B. Schlegel, G. E. Scuseria, 
 M. A. Robb, J. R. Cheeseman, G. Scalmani, V. Barone, B. Mennucci, 
 G. A. Petersson, H. Nakatsuji, M. Caricato, X. Li, H. P. Hratchian, 
 A. F. Izmaylov, J. Bloino, G. Zheng, J. L. Sonnenberg, M. Hada, 
 M. Ehara, K. Toyota, R. Fukuda, J. Hasegawa, M. Ishida, T. Nakajima, 
 Y. Honda, O. Kitao, H. Nakai, T. Vreven, J. A. Montgomery, Jr., 
 J. E. Peralta, F. Ogliaro, M. Bearpark, J. J. Heyd, E. Brothers, 
 K. N. Kudin, V. N. Staroverov, T. Keith, R. Kobayashi, J. Normand, 
 K. Raghavachari, A. Rendell, J. C. Burant, S. S. Iyengar, J. Tomasi, 
 M. Cossi, N. Rega, J. M. Millam, M. Klene, J. E. Knox, J. B. Cross, 
 V. Bakken, C. Adamo, J. Jaramillo, R. Gomperts, R. E. Stratmann, 
 O. Yazyev, A. J. Austin, R. Cammi, C. Pomelli, J. W. Ochterski, 
 R. L. Martin, K. Morokuma, V. G. Zakrzewski, G. A. Voth, 
 P. Salvador, J. J. Dannenberg, S. Dapprich, A. D. Daniels, 
 O. Farkas, J. B. Foresman, J. V. Ortiz, J. Cioslowski, 
 and D. J. Fox, Gaussian, Inc., Wallingford CT, 2013.
 
 ******************************************
 Gaussian 09:  EM64L-G09RevD.01 24-Apr-2013
                25-Mar-2015 
 ******************************************
 %mem=8192mb
 %NProcShared=8
 Will use up to    8 processors via shared memory.
 %chk=/home/hashmi/echivulgarine/ev-2R3S-conf01.chk
 ----------------------------------------------------------------------
 #p pbe1pbe opt freq def2svp empiricaldispersion=gd3bj SCRF=(SMD,solven
 t=Dichloromethane)
 ----------------------------------------------------------------------
 1/14=-1,18=20,19=15,26=3,38=1/1,3;
 2/9=110,12=2,17=6,18=5,40=1/2;
 3/5=43,7=101,11=2,16=1,25=1,30=1,70=32201,71=1,72=9,74=-13,124=41/1,2,3;
 4//1;
 5/5=2,38=5,53=9/2;
 6/7=2,8=2,9=2,10=2,28=1/1;
 7//1,2,3,16;
 1/14=-1,18=20,19=15,26=3/3(2);
 2/9=110/2;
 99//99;
 2/9=110/2;
 3/5=43,7=101,11=2,16=1,25=1,30=1,70=32205,71=1,72=9,74=-13,124=41/1,2,3;
 4/5=5,16=3,69=1/1;
 5/5=2,38=5,53=9/2;
 7//1,2,3,16;
 1/14=-1,18=20,19=15,26=3/3(-5);
 2/9=110/2;
 6/7=2,8=2,9=2,10=2,19=2,28=1/1;
 99/9=1/99;
 Leave Link    1 at Wed Mar 25 13:36:46 2015, MaxMem=  1073741824 cpu:         0.6
 (Enter /usr/local/research/Gaussian09/g09-revD.01/g09/l101.exe)
 -----------------------------------------------
 Optimization of 2R3S-Echivulgarine Conformer 01
 -----------------------------------------------
 Symbolic Z-matrix:
 Charge =  0 Multiplicity = 1
 C                    -2.86272   1.07316   1.28097 
 N                    -3.41195   2.03101   0.29081 
 C                    -2.54061   1.95152  -0.91767 
 C                    -1.34797   1.19456  -0.45967 
 C                    -1.50853   0.71512   0.76738 
 C                    -3.90629  -0.03804   1.49958 
 C                    -5.22114   0.62206   1.09425 
 C                    -4.85092   1.70364   0.08289 
 O                    -3.68043  -1.35739   0.90743 
 C                     0.80919   4.3186   -2.19896 
 H                    -2.72699   1.63762   2.23377 
 C                    -0.48108  -0.09013   1.5133 
 C                    -3.47351  -1.45237  -0.50286 
 C                    -2.27802  -2.17141  -1.0563 
 O                    -4.30088  -0.97938  -1.27481 
 C                    -1.80017  -1.83642  -2.45478 
 C                    -1.6304   -3.17599  -0.40716 
 C                    -2.04313  -3.74786   0.92008 
 O                     0.09492  -1.07954   0.62534 
 C                     1.43688  -1.41062   0.9587 
 C                     2.53566  -1.16034  -0.08137 
 O                     1.63502  -2.05999   1.9825 
 C                     3.30873   0.14439   0.31144 
 C                     3.41965  -2.44624  -0.32071 
 O                     1.89108  -0.87993  -1.35174 
 C                     4.52209  -2.21429  -1.37468 
 C                     2.56546  -3.64812  -0.78866 
 O                     4.08968  -2.86104   0.88952 
 O                     2.3639    1.20428   0.65133 
 C                     4.24797   0.02406   1.51789 
 C                     2.09442   2.19526  -0.34549 
 C                     1.5564    3.52137   0.1042 
 O                     2.33049   1.9755   -1.53074 
 C                     1.05655   4.47542  -0.72518 
 C                     1.66337   3.8373    1.58092 
 H                    -2.24808   2.97442  -1.24563 
 H                    -3.00001   1.4025   -1.77164 
 H                    -0.43689   1.08903  -1.03962 
 H                    -3.95371  -0.23422   2.59655 
 H                    -5.67254   1.11368   1.9884 
 H                    -5.9564   -0.1082    0.68519 
 H                    -5.46268   2.61773   0.25977 
 H                    -5.07684   1.35551  -0.95046 
 H                     0.27329   0.61791   1.92868 
 H                    -0.9721   -0.6165    2.36356 
 H                    -0.92093  -1.15793  -2.38058 
 H                    -1.49636  -2.75405  -3.00903 
 H                    -2.58581  -1.32775  -3.05658 
 H                    -0.78885  -3.66657  -0.89667 
 H                    -1.74291  -3.05493   1.73755 
 H                    -3.14278  -3.91788   0.95595 
 H                    -1.53479  -4.72524   1.08039 
 H                     3.95909   0.446    -0.54434 
 H                     5.09579  -3.15263  -1.55378 
 H                     5.25039  -1.44748  -1.03146 
 H                     4.08507  -1.88168  -2.34386 
 H                     3.20324  -4.55072  -0.93006 
 H                     1.78838  -3.90649  -0.03487 
 H                     2.05572  -3.42652  -1.7542 
 H                     3.35706  -3.30056   1.47378 
 H                     4.64273   1.03132   1.78334 
 H                     5.12169  -0.62327   1.2856 
 H                     3.71102  -0.38462   2.40278 
 H                     0.71281   5.41529  -0.29345 
 H                     2.58512   3.3895    2.01719 
 H                     1.7037    4.93347   1.77705 
 H                     0.77684   3.41358   2.10442 
 H                     0.33685   3.3352   -2.42158 
 H                     0.11916   5.11884  -2.54965 
 H                     1.77102   4.40714  -2.75204 
 H                     1.23997  -0.10224  -1.15043 
 
 NAtoms=     71 NQM=       71 NQMF=       0 NMMI=      0 NMMIF=      0
                NMic=       0 NMicF=      0.
                    Isotopes and Nuclear Properties:
 (Nuclear quadrupole moments (NQMom) in fm**2, nuclear magnetic moments (NMagM)
  in nuclear magnetons)

  Atom         1           2           3           4           5           6           7           8           9          10
 IAtWgt=          12          14          12          12          12          12          12          12          16          12
 AtmWgt=  12.0000000  14.0030740  12.0000000  12.0000000  12.0000000  12.0000000  12.0000000  12.0000000  15.9949146  12.0000000
 NucSpn=           0           2           0           0           0           0           0           0           0           0
 AtZEff=   0.0000000   0.0000000   0.0000000   0.0000000   0.0000000   0.0000000   0.0000000   0.0000000   0.0000000   0.0000000
 NQMom=    0.0000000   2.0440000   0.0000000   0.0000000   0.0000000   0.0000000   0.0000000   0.0000000   0.0000000   0.0000000
 NMagM=    0.0000000   0.4037610   0.0000000   0.0000000   0.0000000   0.0000000   0.0000000   0.0000000   0.0000000   0.0000000
 AtZNuc=   6.0000000   7.0000000   6.0000000   6.0000000   6.0000000   6.0000000   6.0000000   6.0000000   8.0000000   6.0000000

  Atom        11          12          13          14          15          16          17          18          19          20
 IAtWgt=           1          12          12          12          16          12          12          12          16          12
 AtmWgt=   1.0078250  12.0000000  12.0000000  12.0000000  15.9949146  12.0000000  12.0000000  12.0000000  15.9949146  12.0000000
 NucSpn=           1           0           0           0           0           0           0           0           0           0
 AtZEff=   0.0000000   0.0000000   0.0000000   0.0000000   0.0000000   0.0000000   0.0000000   0.0000000   0.0000000   0.0000000
 NQMom=    0.0000000   0.0000000   0.0000000   0.0000000   0.0000000   0.0000000   0.0000000   0.0000000   0.0000000   0.0000000
 NMagM=    2.7928460   0.0000000   0.0000000   0.0000000   0.0000000   0.0000000   0.0000000   0.0000000   0.0000000   0.0000000
 AtZNuc=   1.0000000   6.0000000   6.0000000   6.0000000   8.0000000   6.0000000   6.0000000   6.0000000   8.0000000   6.0000000

  Atom        21          22          23          24          25          26          27          28          29          30
 IAtWgt=          12          16          12          12          16          12          12          16          16          12
 AtmWgt=  12.0000000  15.9949146  12.0000000  12.0000000  15.9949146  12.0000000  12.0000000  15.9949146  15.9949146  12.0000000
 NucSpn=           0           0           0           0           0           0           0           0           0           0
 AtZEff=   0.0000000   0.0000000   0.0000000   0.0000000   0.0000000   0.0000000   0.0000000   0.0000000   0.0000000   0.0000000
 NQMom=    0.0000000   0.0000000   0.0000000   0.0000000   0.0000000   0.0000000   0.0000000   0.0000000   0.0000000   0.0000000
 NMagM=    0.0000000   0.0000000   0.0000000   0.0000000   0.0000000   0.0000000   0.0000000   0.0000000   0.0000000   0.0000000
 AtZNuc=   6.0000000   8.0000000   6.0000000   6.0000000   8.0000000   6.0000000   6.0000000   8.0000000   8.0000000   6.0000000

  Atom        31          32          33          34          35          36          37          38          39          40
 IAtWgt=          12          12          16          12          12           1           1           1           1           1
 AtmWgt=  12.0000000  12.0000000  15.9949146  12.0000000  12.0000000   1.0078250   1.0078250   1.0078250   1.0078250   1.0078250
 NucSpn=           0           0           0           0           0           1           1           1           1           1
 AtZEff=   0.0000000   0.0000000   0.0000000   0.0000000   0.0000000   0.0000000   0.0000000   0.0000000   0.0000000   0.0000000
 NQMom=    0.0000000   0.0000000   0.0000000   0.0000000   0.0000000   0.0000000   0.0000000   0.0000000   0.0000000   0.0000000
 NMagM=    0.0000000   0.0000000   0.0000000   0.0000000   0.0000000   2.7928460   2.7928460   2.7928460   2.7928460   2.7928460
 AtZNuc=   6.0000000   6.0000000   8.0000000   6.0000000   6.0000000   1.0000000   1.0000000   1.0000000   1.0000000   1.0000000

  Atom        41          42          43          44          45          46          47          48          49          50
 IAtWgt=           1           1           1           1           1           1           1           1           1           1
 AtmWgt=   1.0078250   1.0078250   1.0078250   1.0078250   1.0078250   1.0078250   1.0078250   1.0078250   1.0078250   1.0078250
 NucSpn=           1           1           1           1           1           1           1           1           1           1
 AtZEff=   0.0000000   0.0000000   0.0000000   0.0000000   0.0000000   0.0000000   0.0000000   0.0000000   0.0000000   0.0000000
 NQMom=    0.0000000   0.0000000   0.0000000   0.0000000   0.0000000   0.0000000   0.0000000   0.0000000   0.0000000   0.0000000
 NMagM=    2.7928460   2.7928460   2.7928460   2.7928460   2.7928460   2.7928460   2.7928460   2.7928460   2.7928460   2.7928460
 AtZNuc=   1.0000000   1.0000000   1.0000000   1.0000000   1.0000000   1.0000000   1.0000000   1.0000000   1.0000000   1.0000000

  Atom        51          52          53          54          55          56          57          58          59          60
 IAtWgt=           1           1           1           1           1           1           1           1           1           1
 AtmWgt=   1.0078250   1.0078250   1.0078250   1.0078250   1.0078250   1.0078250   1.0078250   1.0078250   1.0078250   1.0078250
 NucSpn=           1           1           1           1           1           1           1           1           1           1
 AtZEff=   0.0000000   0.0000000   0.0000000   0.0000000   0.0000000   0.0000000   0.0000000   0.0000000   0.0000000   0.0000000
 NQMom=    0.0000000   0.0000000   0.0000000   0.0000000   0.0000000   0.0000000   0.0000000   0.0000000   0.0000000   0.0000000
 NMagM=    2.7928460   2.7928460   2.7928460   2.7928460   2.7928460   2.7928460   2.7928460   2.7928460   2.7928460   2.7928460
 AtZNuc=   1.0000000   1.0000000   1.0000000   1.0000000   1.0000000   1.0000000   1.0000000   1.0000000   1.0000000   1.0000000

  Atom        61          62          63          64          65          66          67          68          69          70
 IAtWgt=           1           1           1           1           1           1           1           1           1           1
 AtmWgt=   1.0078250   1.0078250   1.0078250   1.0078250   1.0078250   1.0078250   1.0078250   1.0078250   1.0078250   1.0078250
 NucSpn=           1           1           1           1           1           1           1           1           1           1
 AtZEff=   0.0000000   0.0000000   0.0000000   0.0000000   0.0000000   0.0000000   0.0000000   0.0000000   0.0000000   0.0000000
 NQMom=    0.0000000   0.0000000   0.0000000   0.0000000   0.0000000   0.0000000   0.0000000   0.0000000   0.0000000   0.0000000
 NMagM=    2.7928460   2.7928460   2.7928460   2.7928460   2.7928460   2.7928460   2.7928460   2.7928460   2.7928460   2.7928460
 AtZNuc=   1.0000000   1.0000000   1.0000000   1.0000000   1.0000000   1.0000000   1.0000000   1.0000000   1.0000000   1.0000000

  Atom        71
 IAtWgt=           1
 AtmWgt=   1.0078250
 NucSpn=           1
 AtZEff=   0.0000000
 NQMom=    0.0000000
 NMagM=    2.7928460
 AtZNuc=   1.0000000
 Leave Link  101 at Wed Mar 25 13:36:46 2015, MaxMem=  1073741824 cpu:         2.4
 (Enter /usr/local/research/Gaussian09/g09-revD.01/g09/l103.exe)

 GradGradGradGradGradGradGradGradGradGradGradGradGradGradGradGradGradGrad
 Berny optimization.
 Initialization pass.
                           ----------------------------
                           !    Initial Parameters    !
                           ! (Angstroms and Degrees)  !
 --------------------------                            --------------------------
 ! Name  Definition              Value          Derivative Info.                !
 --------------------------------------------------------------------------------
 ! R1    R(1,2)                  1.4831         estimate D2E/DX2                !
 ! R2    R(1,5)                  1.4919         estimate D2E/DX2                !
 ! R3    R(1,6)                  1.54           estimate D2E/DX2                !
 ! R4    R(1,11)                 1.1157         estimate D2E/DX2                !
 ! R5    R(2,3)                  1.492          estimate D2E/DX2                !
 ! R6    R(2,8)                  1.4903         estimate D2E/DX2                !
 ! R7    R(3,4)                  1.485          estimate D2E/DX2                !
 ! R8    R(3,36)                 1.1133         estimate D2E/DX2                !
 ! R9    R(3,37)                 1.1143         estimate D2E/DX2                !
 ! R10   R(4,5)                  1.3271         estimate D2E/DX2                !
 ! R11   R(4,38)                 1.0851         estimate D2E/DX2                !
 ! R12   R(5,12)                 1.5035         estimate D2E/DX2                !
 ! R13   R(6,7)                  1.5261         estimate D2E/DX2                !
 ! R14   R(6,9)                  1.4637         estimate D2E/DX2                !
 ! R15   R(6,39)                 1.1154         estimate D2E/DX2                !
 ! R16   R(7,8)                  1.5263         estimate D2E/DX2                !
 ! R17   R(7,40)                 1.1158         estimate D2E/DX2                !
 ! R18   R(7,41)                 1.1141         estimate D2E/DX2                !
 ! R19   R(8,42)                 1.114          estimate D2E/DX2                !
 ! R20   R(8,43)                 1.1136         estimate D2E/DX2                !
 ! R21   R(9,13)                 1.4285         estimate D2E/DX2                !
 ! R22   R(10,34)                1.5026         estimate D2E/DX2                !
 ! R23   R(10,68)                1.1134         estimate D2E/DX2                !
 ! R24   R(10,69)                1.1133         estimate D2E/DX2                !
 ! R25   R(10,70)                1.113          estimate D2E/DX2                !
 ! R26   R(12,19)                1.4489         estimate D2E/DX2                !
 ! R27   R(12,44)                1.1149         estimate D2E/DX2                !
 ! R28   R(12,45)                1.1141         estimate D2E/DX2                !
 ! R29   R(13,14)                1.5008         estimate D2E/DX2                !
 ! R30   R(13,15)                1.2264         estimate D2E/DX2                !
 ! R31   R(14,16)                1.5154         estimate D2E/DX2                !
 ! R32   R(14,17)                1.3601         estimate D2E/DX2                !
 ! R33   R(16,46)                1.1131         estimate D2E/DX2                !
 ! R34   R(16,47)                1.1142         estimate D2E/DX2                !
 ! R35   R(16,48)                1.1127         estimate D2E/DX2                !
 ! R36   R(17,18)                1.503          estimate D2E/DX2                !
 ! R37   R(17,49)                1.0902         estimate D2E/DX2                !
 ! R38   R(18,50)                1.1129         estimate D2E/DX2                !
 ! R39   R(18,51)                1.1133         estimate D2E/DX2                !
 ! R40   R(18,52)                1.1133         estimate D2E/DX2                !
 ! R41   R(19,20)                1.4218         estimate D2E/DX2                !
 ! R42   R(20,21)                1.5335         estimate D2E/DX2                !
 ! R43   R(20,22)                1.2285         estimate D2E/DX2                !
 ! R44   R(21,23)                1.5666         estimate D2E/DX2                !
 ! R45   R(21,24)                1.5787         estimate D2E/DX2                !
 ! R46   R(21,25)                1.4519         estimate D2E/DX2                !
 ! R47   R(23,29)                1.46           estimate D2E/DX2                !
 ! R48   R(23,30)                1.5337         estimate D2E/DX2                !
 ! R49   R(23,53)                1.1164         estimate D2E/DX2                !
 ! R50   R(24,26)                1.5427         estimate D2E/DX2                !
 ! R51   R(24,27)                1.547          estimate D2E/DX2                !
 ! R52   R(24,28)                1.4442         estimate D2E/DX2                !
 ! R53   R(25,71)                1.0341         estimate D2E/DX2                !
 ! R54   R(26,54)                1.1143         estimate D2E/DX2                !
 ! R55   R(26,55)                1.1119         estimate D2E/DX2                !
 ! R56   R(26,56)                1.114          estimate D2E/DX2                !
 ! R57   R(27,57)                1.1142         estimate D2E/DX2                !
 ! R58   R(27,58)                1.113          estimate D2E/DX2                !
 ! R59   R(27,59)                1.1141         estimate D2E/DX2                !
 ! R60   R(28,60)                1.035          estimate D2E/DX2                !
 ! R61   R(29,31)                1.4312         estimate D2E/DX2                !
 ! R62   R(30,61)                1.1139         estimate D2E/DX2                !
 ! R63   R(30,62)                1.1119         estimate D2E/DX2                !
 ! R64   R(30,63)                1.1128         estimate D2E/DX2                !
 ! R65   R(31,32)                1.5001         estimate D2E/DX2                !
 ! R66   R(31,33)                1.2283         estimate D2E/DX2                !
 ! R67   R(32,34)                1.3594         estimate D2E/DX2                !
 ! R68   R(32,35)                1.5139         estimate D2E/DX2                !
 ! R69   R(34,64)                1.0899         estimate D2E/DX2                !
 ! R70   R(35,65)                1.1138         estimate D2E/DX2                !
 ! R71   R(35,66)                1.1143         estimate D2E/DX2                !
 ! R72   R(35,67)                1.1133         estimate D2E/DX2                !
 ! A1    A(2,1,5)              105.1476         estimate D2E/DX2                !
 ! A2    A(2,1,6)              108.0497         estimate D2E/DX2                !
 ! A3    A(2,1,11)             106.765          estimate D2E/DX2                !
 ! A4    A(5,1,6)              119.3926         estimate D2E/DX2                !
 ! A5    A(5,1,11)             107.7563         estimate D2E/DX2                !
 ! A6    A(6,1,11)             109.0416         estimate D2E/DX2                !
 ! A7    A(1,2,3)              106.8632         estimate D2E/DX2                !
 ! A8    A(1,2,8)              107.9896         estimate D2E/DX2                !
 ! A9    A(3,2,8)              116.0522         estimate D2E/DX2                !
 ! A10   A(2,3,4)              104.2639         estimate D2E/DX2                !
 ! A11   A(2,3,36)             110.0665         estimate D2E/DX2                !
 ! A12   A(2,3,37)             113.9673         estimate D2E/DX2                !
 ! A13   A(4,3,36)             110.3758         estimate D2E/DX2                !
 ! A14   A(4,3,37)             108.4405         estimate D2E/DX2                !
 ! A15   A(36,3,37)            109.5879         estimate D2E/DX2                !
 ! A16   A(3,4,5)              111.8482         estimate D2E/DX2                !
 ! A17   A(3,4,38)             123.9899         estimate D2E/DX2                !
 ! A18   A(5,4,38)             124.096          estimate D2E/DX2                !
 ! A19   A(1,5,4)              109.9625         estimate D2E/DX2                !
 ! A20   A(1,5,12)             125.3126         estimate D2E/DX2                !
 ! A21   A(4,5,12)             124.7167         estimate D2E/DX2                !
 ! A22   A(1,6,7)              103.5351         estimate D2E/DX2                !
 ! A23   A(1,6,9)              119.2364         estimate D2E/DX2                !
 ! A24   A(1,6,39)             107.1775         estimate D2E/DX2                !
 ! A25   A(7,6,9)              114.5445         estimate D2E/DX2                !
 ! A26   A(7,6,39)             107.4979         estimate D2E/DX2                !
 ! A27   A(9,6,39)             104.2352         estimate D2E/DX2                !
 ! A28   A(6,7,8)              105.8737         estimate D2E/DX2                !
 ! A29   A(6,7,40)             109.0448         estimate D2E/DX2                !
 ! A30   A(6,7,41)             112.4958         estimate D2E/DX2                !
 ! A31   A(8,7,40)             108.4755         estimate D2E/DX2                !
 ! A32   A(8,7,41)             112.4119         estimate D2E/DX2                !
 ! A33   A(40,7,41)            108.4241         estimate D2E/DX2                !
 ! A34   A(2,8,7)              107.3022         estimate D2E/DX2                !
 ! A35   A(2,8,42)             109.1369         estimate D2E/DX2                !
 ! A36   A(2,8,43)             113.2052         estimate D2E/DX2                !
 ! A37   A(7,8,42)             110.0613         estimate D2E/DX2                !
 ! A38   A(7,8,43)             110.1288         estimate D2E/DX2                !
 ! A39   A(42,8,43)            107.0041         estimate D2E/DX2                !
 ! A40   A(6,9,13)             118.7949         estimate D2E/DX2                !
 ! A41   A(34,10,68)           110.9846         estimate D2E/DX2                !
 ! A42   A(34,10,69)           109.6312         estimate D2E/DX2                !
 ! A43   A(34,10,70)           109.6833         estimate D2E/DX2                !
 ! A44   A(68,10,69)           107.9947         estimate D2E/DX2                !
 ! A45   A(68,10,70)           109.7242         estimate D2E/DX2                !
 ! A46   A(69,10,70)           108.7772         estimate D2E/DX2                !
 ! A47   A(5,12,19)            109.4733         estimate D2E/DX2                !
 ! A48   A(5,12,44)            107.8849         estimate D2E/DX2                !
 ! A49   A(5,12,45)            109.2996         estimate D2E/DX2                !
 ! A50   A(19,12,44)           113.1436         estimate D2E/DX2                !
 ! A51   A(19,12,45)           108.6823         estimate D2E/DX2                !
 ! A52   A(44,12,45)           108.2969         estimate D2E/DX2                !
 ! A53   A(9,13,14)            120.7486         estimate D2E/DX2                !
 ! A54   A(9,13,15)            119.8691         estimate D2E/DX2                !
 ! A55   A(14,13,15)           119.3421         estimate D2E/DX2                !
 ! A56   A(13,14,16)           119.0508         estimate D2E/DX2                !
 ! A57   A(13,14,17)           123.8576         estimate D2E/DX2                !
 ! A58   A(16,14,17)           116.9735         estimate D2E/DX2                !
 ! A59   A(14,16,46)           108.8037         estimate D2E/DX2                !
 ! A60   A(14,16,47)           111.2834         estimate D2E/DX2                !
 ! A61   A(14,16,48)           112.1811         estimate D2E/DX2                !
 ! A62   A(46,16,47)           108.6499         estimate D2E/DX2                !
 ! A63   A(46,16,48)           108.3684         estimate D2E/DX2                !
 ! A64   A(47,16,48)           107.4555         estimate D2E/DX2                !
 ! A65   A(14,17,18)           124.8709         estimate D2E/DX2                !
 ! A66   A(14,17,49)           119.0529         estimate D2E/DX2                !
 ! A67   A(18,17,49)           115.9301         estimate D2E/DX2                !
 ! A68   A(17,18,50)           109.7348         estimate D2E/DX2                !
 ! A69   A(17,18,51)           110.9653         estimate D2E/DX2                !
 ! A70   A(17,18,52)           109.6222         estimate D2E/DX2                !
 ! A71   A(50,18,51)           109.7477         estimate D2E/DX2                !
 ! A72   A(50,18,52)           108.5227         estimate D2E/DX2                !
 ! A73   A(51,18,52)           108.1982         estimate D2E/DX2                !
 ! A74   A(12,19,20)           112.9884         estimate D2E/DX2                !
 ! A75   A(19,20,21)           118.6357         estimate D2E/DX2                !
 ! A76   A(19,20,22)           118.0809         estimate D2E/DX2                !
 ! A77   A(21,20,22)           122.4074         estimate D2E/DX2                !
 ! A78   A(20,21,23)           108.629          estimate D2E/DX2                !
 ! A79   A(20,21,24)           111.7831         estimate D2E/DX2                !
 ! A80   A(20,21,25)           107.8696         estimate D2E/DX2                !
 ! A81   A(23,21,24)           116.1085         estimate D2E/DX2                !
 ! A82   A(23,21,25)           106.1184         estimate D2E/DX2                !
 ! A83   A(24,21,25)           105.8584         estimate D2E/DX2                !
 ! A84   A(21,23,29)           110.0981         estimate D2E/DX2                !
 ! A85   A(21,23,30)           115.7282         estimate D2E/DX2                !
 ! A86   A(21,23,53)           108.6795         estimate D2E/DX2                !
 ! A87   A(29,23,30)           105.6728         estimate D2E/DX2                !
 ! A88   A(29,23,53)           111.0591         estimate D2E/DX2                !
 ! A89   A(30,23,53)           105.5121         estimate D2E/DX2                !
 ! A90   A(21,24,26)           112.4113         estimate D2E/DX2                !
 ! A91   A(21,24,27)           111.685          estimate D2E/DX2                !
 ! A92   A(21,24,28)           111.512          estimate D2E/DX2                !
 ! A93   A(26,24,27)           107.742          estimate D2E/DX2                !
 ! A94   A(26,24,28)           106.5083         estimate D2E/DX2                !
 ! A95   A(27,24,28)           106.6498         estimate D2E/DX2                !
 ! A96   A(21,25,71)           104.7416         estimate D2E/DX2                !
 ! A97   A(24,26,54)           110.5552         estimate D2E/DX2                !
 ! A98   A(24,26,55)           111.1546         estimate D2E/DX2                !
 ! A99   A(24,26,56)           111.0347         estimate D2E/DX2                !
 ! A100  A(54,26,55)           107.0454         estimate D2E/DX2                !
 ! A101  A(54,26,56)           108.2746         estimate D2E/DX2                !
 ! A102  A(55,26,56)           108.6401         estimate D2E/DX2                !
 ! A103  A(24,27,57)           110.5911         estimate D2E/DX2                !
 ! A104  A(24,27,58)           111.1614         estimate D2E/DX2                !
 ! A105  A(24,27,59)           111.1162         estimate D2E/DX2                !
 ! A106  A(57,27,58)           107.3099         estimate D2E/DX2                !
 ! A107  A(57,27,59)           108.2428         estimate D2E/DX2                !
 ! A108  A(58,27,59)           108.2809         estimate D2E/DX2                !
 ! A109  A(24,28,60)           105.4629         estimate D2E/DX2                !
 ! A110  A(23,29,31)           117.5399         estimate D2E/DX2                !
 ! A111  A(23,30,61)           109.4835         estimate D2E/DX2                !
 ! A112  A(23,30,62)           111.2572         estimate D2E/DX2                !
 ! A113  A(23,30,63)           111.0287         estimate D2E/DX2                !
 ! A114  A(61,30,62)           107.3216         estimate D2E/DX2                !
 ! A115  A(61,30,63)           108.2751         estimate D2E/DX2                !
 ! A116  A(62,30,63)           109.3576         estimate D2E/DX2                !
 ! A117  A(29,31,32)           118.0895         estimate D2E/DX2                !
 ! A118  A(29,31,33)           120.7967         estimate D2E/DX2                !
 ! A119  A(32,31,33)           121.0874         estimate D2E/DX2                !
 ! A120  A(31,32,34)           124.7092         estimate D2E/DX2                !
 ! A121  A(31,32,35)           116.8431         estimate D2E/DX2                !
 ! A122  A(34,32,35)           118.3361         estimate D2E/DX2                !
 ! A123  A(10,34,32)           125.8522         estimate D2E/DX2                !
 ! A124  A(10,34,64)           115.2518         estimate D2E/DX2                !
 ! A125  A(32,34,64)           118.6528         estimate D2E/DX2                !
 ! A126  A(32,35,65)           110.8949         estimate D2E/DX2                !
 ! A127  A(32,35,66)           112.3045         estimate D2E/DX2                !
 ! A128  A(32,35,67)           108.8425         estimate D2E/DX2                !
 ! A129  A(65,35,66)           107.2545         estimate D2E/DX2                !
 ! A130  A(65,35,67)           108.7717         estimate D2E/DX2                !
 ! A131  A(66,35,67)           108.69           estimate D2E/DX2                !
 ! D1    D(5,1,2,3)             13.6828         estimate D2E/DX2                !
 ! D2    D(5,1,2,8)            139.1997         estimate D2E/DX2                !
 ! D3    D(6,1,2,3)           -114.8522         estimate D2E/DX2                !
 ! D4    D(6,1,2,8)             10.6646         estimate D2E/DX2                !
 ! D5    D(11,1,2,3)           127.9834         estimate D2E/DX2                !
 ! D6    D(11,1,2,8)          -106.4997         estimate D2E/DX2                !
 ! D7    D(2,1,5,4)             -9.4259         estimate D2E/DX2                !
 ! D8    D(2,1,5,12)           171.5801         estimate D2E/DX2                !
 ! D9    D(6,1,5,4)            111.9674         estimate D2E/DX2                !
 ! D10   D(6,1,5,12)           -67.0266         estimate D2E/DX2                !
 ! D11   D(11,1,5,4)          -123.0332         estimate D2E/DX2                !
 ! D12   D(11,1,5,12)           57.9728         estimate D2E/DX2                !
 ! D13   D(2,1,6,7)            -23.4116         estimate D2E/DX2                !
 ! D14   D(2,1,6,9)            105.225          estimate D2E/DX2                !
 ! D15   D(2,1,6,39)          -136.8718         estimate D2E/DX2                !
 ! D16   D(5,1,6,7)           -143.3456         estimate D2E/DX2                !
 ! D17   D(5,1,6,9)            -14.709          estimate D2E/DX2                !
 ! D18   D(5,1,6,39)           103.1941         estimate D2E/DX2                !
 ! D19   D(11,1,6,7)            92.2726         estimate D2E/DX2                !
 ! D20   D(11,1,6,9)          -139.0907         estimate D2E/DX2                !
 ! D21   D(11,1,6,39)          -21.1876         estimate D2E/DX2                !
 ! D22   D(1,2,3,4)            -12.9151         estimate D2E/DX2                !
 ! D23   D(1,2,3,36)          -131.2963         estimate D2E/DX2                !
 ! D24   D(1,2,3,37)           105.1318         estimate D2E/DX2                !
 ! D25   D(8,2,3,4)           -133.4062         estimate D2E/DX2                !
 ! D26   D(8,2,3,36)           108.2126         estimate D2E/DX2                !
 ! D27   D(8,2,3,37)           -15.3594         estimate D2E/DX2                !
 ! D28   D(1,2,8,7)              6.5983         estimate D2E/DX2                !
 ! D29   D(1,2,8,42)           125.8333         estimate D2E/DX2                !
 ! D30   D(1,2,8,43)          -115.1179         estimate D2E/DX2                !
 ! D31   D(3,2,8,7)            126.4817         estimate D2E/DX2                !
 ! D32   D(3,2,8,42)          -114.2834         estimate D2E/DX2                !
 ! D33   D(3,2,8,43)             4.7654         estimate D2E/DX2                !
 ! D34   D(2,3,4,5)              7.4306         estimate D2E/DX2                !
 ! D35   D(2,3,4,38)          -169.7177         estimate D2E/DX2                !
 ! D36   D(36,3,4,5)           125.6            estimate D2E/DX2                !
 ! D37   D(36,3,4,38)          -51.5483         estimate D2E/DX2                !
 ! D38   D(37,3,4,5)          -114.3449         estimate D2E/DX2                !
 ! D39   D(37,3,4,38)           68.5068         estimate D2E/DX2                !
 ! D40   D(3,4,5,1)              1.2078         estimate D2E/DX2                !
 ! D41   D(3,4,5,12)          -179.791          estimate D2E/DX2                !
 ! D42   D(38,4,5,1)           178.3524         estimate D2E/DX2                !
 ! D43   D(38,4,5,12)           -2.6463         estimate D2E/DX2                !
 ! D44   D(1,5,12,19)          134.8972         estimate D2E/DX2                !
 ! D45   D(1,5,12,44)         -101.5877         estimate D2E/DX2                !
 ! D46   D(1,5,12,45)           15.9627         estimate D2E/DX2                !
 ! D47   D(4,5,12,19)          -43.9523         estimate D2E/DX2                !
 ! D48   D(4,5,12,44)           79.5627         estimate D2E/DX2                !
 ! D49   D(4,5,12,45)         -162.8868         estimate D2E/DX2                !
 ! D50   D(1,6,7,8)             26.9305         estimate D2E/DX2                !
 ! D51   D(1,6,7,40)           -89.6018         estimate D2E/DX2                !
 ! D52   D(1,6,7,41)           150.0772         estimate D2E/DX2                !
 ! D53   D(9,6,7,8)           -104.5374         estimate D2E/DX2                !
 ! D54   D(9,6,7,40)           138.9302         estimate D2E/DX2                !
 ! D55   D(9,6,7,41)            18.6092         estimate D2E/DX2                !
 ! D56   D(39,6,7,8)           140.159          estimate D2E/DX2                !
 ! D57   D(39,6,7,40)           23.6267         estimate D2E/DX2                !
 ! D58   D(39,6,7,41)          -96.6943         estimate D2E/DX2                !
 ! D59   D(1,6,9,13)           -56.1846         estimate D2E/DX2                !
 ! D60   D(7,6,9,13)            67.2134         estimate D2E/DX2                !
 ! D61   D(39,6,9,13)         -175.6018         estimate D2E/DX2                !
 ! D62   D(6,7,8,2)            -21.3532         estimate D2E/DX2                !
 ! D63   D(6,7,8,42)          -139.9928         estimate D2E/DX2                !
 ! D64   D(6,7,8,43)           102.2693         estimate D2E/DX2                !
 ! D65   D(40,7,8,2)            95.5631         estimate D2E/DX2                !
 ! D66   D(40,7,8,42)          -23.0765         estimate D2E/DX2                !
 ! D67   D(40,7,8,43)         -140.8143         estimate D2E/DX2                !
 ! D68   D(41,7,8,2)          -144.553          estimate D2E/DX2                !
 ! D69   D(41,7,8,42)           96.8074         estimate D2E/DX2                !
 ! D70   D(41,7,8,43)          -20.9304         estimate D2E/DX2                !
 ! D71   D(6,9,13,14)          127.423          estimate D2E/DX2                !
 ! D72   D(6,9,13,15)          -54.8996         estimate D2E/DX2                !
 ! D73   D(68,10,34,32)         43.2032         estimate D2E/DX2                !
 ! D74   D(68,10,34,64)       -131.0224         estimate D2E/DX2                !
 ! D75   D(69,10,34,32)        162.4194         estimate D2E/DX2                !
 ! D76   D(69,10,34,64)        -11.8062         estimate D2E/DX2                !
 ! D77   D(70,10,34,32)        -78.2032         estimate D2E/DX2                !
 ! D78   D(70,10,34,64)        107.5712         estimate D2E/DX2                !
 ! D79   D(5,12,19,20)         150.5573         estimate D2E/DX2                !
 ! D80   D(44,12,19,20)         30.2004         estimate D2E/DX2                !
 ! D81   D(45,12,19,20)        -90.1269         estimate D2E/DX2                !
 ! D82   D(9,13,14,16)        -157.4366         estimate D2E/DX2                !
 ! D83   D(9,13,14,17)          26.6379         estimate D2E/DX2                !
 ! D84   D(15,13,14,16)         24.8739         estimate D2E/DX2                !
 ! D85   D(15,13,14,17)       -151.0516         estimate D2E/DX2                !
 ! D86   D(13,14,16,46)        100.8713         estimate D2E/DX2                !
 ! D87   D(13,14,16,47)       -139.4469         estimate D2E/DX2                !
 ! D88   D(13,14,16,48)        -19.0177         estimate D2E/DX2                !
 ! D89   D(17,14,16,46)        -82.9248         estimate D2E/DX2                !
 ! D90   D(17,14,16,47)         36.757          estimate D2E/DX2                !
 ! D91   D(17,14,16,48)        157.1862         estimate D2E/DX2                !
 ! D92   D(13,14,17,18)          2.6036         estimate D2E/DX2                !
 ! D93   D(13,14,17,49)        178.0206         estimate D2E/DX2                !
 ! D94   D(16,14,17,18)       -173.3999         estimate D2E/DX2                !
 ! D95   D(16,14,17,49)          2.0171         estimate D2E/DX2                !
 ! D96   D(14,17,18,50)        -76.9855         estimate D2E/DX2                !
 ! D97   D(14,17,18,51)         44.4722         estimate D2E/DX2                !
 ! D98   D(14,17,18,52)        163.9229         estimate D2E/DX2                !
 ! D99   D(49,17,18,50)        107.469          estimate D2E/DX2                !
 ! D100  D(49,17,18,51)       -131.0733         estimate D2E/DX2                !
 ! D101  D(49,17,18,52)        -11.6226         estimate D2E/DX2                !
 ! D102  D(12,19,20,21)       -119.8286         estimate D2E/DX2                !
 ! D103  D(12,19,20,22)         70.6213         estimate D2E/DX2                !
 ! D104  D(19,20,21,23)        102.324          estimate D2E/DX2                !
 ! D105  D(19,20,21,24)       -128.2686         estimate D2E/DX2                !
 ! D106  D(19,20,21,25)        -12.2902         estimate D2E/DX2                !
 ! D107  D(22,20,21,23)        -88.6022         estimate D2E/DX2                !
 ! D108  D(22,20,21,24)         40.8052         estimate D2E/DX2                !
 ! D109  D(22,20,21,25)        156.7836         estimate D2E/DX2                !
 ! D110  D(20,21,23,29)        -46.4739         estimate D2E/DX2                !
 ! D111  D(20,21,23,30)         73.238          estimate D2E/DX2                !
 ! D112  D(20,21,23,53)       -168.3184         estimate D2E/DX2                !
 ! D113  D(24,21,23,29)       -173.4383         estimate D2E/DX2                !
 ! D114  D(24,21,23,30)        -53.7264         estimate D2E/DX2                !
 ! D115  D(24,21,23,53)         64.7172         estimate D2E/DX2                !
 ! D116  D(25,21,23,29)         69.2785         estimate D2E/DX2                !
 ! D117  D(25,21,23,30)       -171.0095         estimate D2E/DX2                !
 ! D118  D(25,21,23,53)        -52.5659         estimate D2E/DX2                !
 ! D119  D(20,21,24,26)        179.4705         estimate D2E/DX2                !
 ! D120  D(20,21,24,27)         58.2239         estimate D2E/DX2                !
 ! D121  D(20,21,24,28)        -60.9961         estimate D2E/DX2                !
 ! D122  D(23,21,24,26)        -55.1533         estimate D2E/DX2                !
 ! D123  D(23,21,24,27)       -176.3999         estimate D2E/DX2                !
 ! D124  D(23,21,24,28)         64.3802         estimate D2E/DX2                !
 ! D125  D(25,21,24,26)         62.2739         estimate D2E/DX2                !
 ! D126  D(25,21,24,27)        -58.9727         estimate D2E/DX2                !
 ! D127  D(25,21,24,28)       -178.1927         estimate D2E/DX2                !
 ! D128  D(20,21,25,71)         54.1907         estimate D2E/DX2                !
 ! D129  D(23,21,25,71)        -62.075          estimate D2E/DX2                !
 ! D130  D(24,21,25,71)        173.987          estimate D2E/DX2                !
 ! D131  D(21,23,29,31)       -100.3941         estimate D2E/DX2                !
 ! D132  D(30,23,29,31)        133.9605         estimate D2E/DX2                !
 ! D133  D(53,23,29,31)         20.0264         estimate D2E/DX2                !
 ! D134  D(21,23,30,61)       -172.981          estimate D2E/DX2                !
 ! D135  D(21,23,30,62)         68.5613         estimate D2E/DX2                !
 ! D136  D(21,23,30,63)        -53.4843         estimate D2E/DX2                !
 ! D137  D(29,23,30,61)        -50.8826         estimate D2E/DX2                !
 ! D138  D(29,23,30,62)       -169.3402         estimate D2E/DX2                !
 ! D139  D(29,23,30,63)         68.6141         estimate D2E/DX2                !
 ! D140  D(53,23,30,61)         66.84           estimate D2E/DX2                !
 ! D141  D(53,23,30,62)        -51.6177         estimate D2E/DX2                !
 ! D142  D(53,23,30,63)       -173.6634         estimate D2E/DX2                !
 ! D143  D(21,24,26,54)       -177.3675         estimate D2E/DX2                !
 ! D144  D(21,24,26,55)         63.8957         estimate D2E/DX2                !
 ! D145  D(21,24,26,56)        -57.1684         estimate D2E/DX2                !
 ! D146  D(27,24,26,54)        -53.8907         estimate D2E/DX2                !
 ! D147  D(27,24,26,55)       -172.6275         estimate D2E/DX2                !
 ! D148  D(27,24,26,56)         66.3084         estimate D2E/DX2                !
 ! D149  D(28,24,26,54)         60.2254         estimate D2E/DX2                !
 ! D150  D(28,24,26,55)        -58.5115         estimate D2E/DX2                !
 ! D151  D(28,24,26,56)       -179.5756         estimate D2E/DX2                !
 ! D152  D(21,24,27,57)       -178.7401         estimate D2E/DX2                !
 ! D153  D(21,24,27,58)        -59.6449         estimate D2E/DX2                !
 ! D154  D(21,24,27,59)         61.0232         estimate D2E/DX2                !
 ! D155  D(26,24,27,57)         57.342          estimate D2E/DX2                !
 ! D156  D(26,24,27,58)        176.4372         estimate D2E/DX2                !
 ! D157  D(26,24,27,59)        -62.8946         estimate D2E/DX2                !
 ! D158  D(28,24,27,57)        -56.6797         estimate D2E/DX2                !
 ! D159  D(28,24,27,58)         62.4155         estimate D2E/DX2                !
 ! D160  D(28,24,27,59)       -176.9164         estimate D2E/DX2                !
 ! D161  D(21,24,28,60)         74.8853         estimate D2E/DX2                !
 ! D162  D(26,24,28,60)       -162.1424         estimate D2E/DX2                !
 ! D163  D(27,24,28,60)        -47.2842         estimate D2E/DX2                !
 ! D164  D(23,29,31,32)       -158.1291         estimate D2E/DX2                !
 ! D165  D(23,29,31,33)         20.0244         estimate D2E/DX2                !
 ! D166  D(29,31,32,34)       -169.0504         estimate D2E/DX2                !
 ! D167  D(29,31,32,35)         14.8665         estimate D2E/DX2                !
 ! D168  D(33,31,32,34)         12.8017         estimate D2E/DX2                !
 ! D169  D(33,31,32,35)       -163.2814         estimate D2E/DX2                !
 ! D170  D(31,32,34,10)          7.4012         estimate D2E/DX2                !
 ! D171  D(31,32,34,64)       -178.5508         estimate D2E/DX2                !
 ! D172  D(35,32,34,10)       -176.5694         estimate D2E/DX2                !
 ! D173  D(35,32,34,64)         -2.5215         estimate D2E/DX2                !
 ! D174  D(31,32,35,65)         33.4033         estimate D2E/DX2                !
 ! D175  D(31,32,35,66)        153.3887         estimate D2E/DX2                !
 ! D176  D(31,32,35,67)        -86.2158         estimate D2E/DX2                !
 ! D177  D(34,32,35,65)       -142.9388         estimate D2E/DX2                !
 ! D178  D(34,32,35,66)        -22.9535         estimate D2E/DX2                !
 ! D179  D(34,32,35,67)         97.442          estimate D2E/DX2                !
 --------------------------------------------------------------------------------
 Trust Radius=3.00D-01 FncErr=1.00D-07 GrdErr=1.00D-06
 Number of steps in this run=    392 maximum allowed number of steps=    426.
 GradGradGradGradGradGradGradGradGradGradGradGradGradGradGradGradGradGrad

 Leave Link  103 at Wed Mar 25 13:36:46 2015, MaxMem=  1073741824 cpu:         0.1
 (Enter /usr/local/research/Gaussian09/g09-revD.01/g09/l202.exe)
 Stoichiometry    C25H37NO8
 Framework group  C1[X(C25H37NO8)]
 Deg. of freedom   207
 Full point group                 C1      NOp   1
 Largest Abelian subgroup         C1      NOp   1
 Largest concise Abelian subgroup C1      NOp   1
                         Standard orientation:                         
 ---------------------------------------------------------------------
 Center     Atomic      Atomic             Coordinates (Angstroms)
 Number     Number       Type             X           Y           Z
 ---------------------------------------------------------------------
      1          6           0        2.961625    0.721202   -1.234875
      2          7           0        3.615352    1.636179   -0.267918
      3          6           0        2.720418    1.718538    0.923001
      4          6           0        1.446353    1.107604    0.466206
      5          6           0        1.563355    0.564184   -0.738908
      6          6           0        3.852948   -0.525011   -1.390090
      7          6           0        5.236253   -0.028107   -0.979716
      8          6           0        4.994690    1.130982   -0.016446
      9          8           0        3.444668   -1.779410   -0.755953
     10          6           0       -0.309105    4.552686    2.043503
     11          1           0        2.918082    1.261358   -2.210170
     12          6           0        0.451602   -0.127400   -1.477957
     13          6           0        3.202708   -1.791838    0.651902
     14          6           0        1.913369   -2.325756    1.204212
     15          8           0        4.071841   -1.402109    1.424487
     16          6           0        1.459871   -1.877142    2.578763
     17          6           0        1.150073   -3.260928    0.577469
     18          6           0        1.506523   -3.932889   -0.718818
     19          8           0       -0.265238   -0.997560   -0.567934
     20          6           0       -1.633210   -1.162201   -0.918858
     21          6           0       -2.707107   -0.729818    0.086872
     22          8           0       -1.897660   -1.819000   -1.922745
     23          6           0       -3.294231    0.648963   -0.369752
     24          6           0       -3.757149   -1.878298    0.352700
     25          8           0       -2.053168   -0.487599    1.360311
     26          6           0       -4.837334   -1.463055    1.372897
     27          6           0       -3.077344   -3.162945    0.882493
     28          8           0       -4.455095   -2.247977   -0.856376
     29          8           0       -2.211999    1.561687   -0.726548
     30          6           0       -4.220172    0.606477   -1.591637
     31          6           0       -1.831271    2.546471    0.239660
     32          6           0       -1.115178    3.772083   -0.245459
     33          8           0       -2.114713    2.405571    1.426525
     34          6           0       -0.508118    4.683567    0.559903
     35          6           0       -1.153991    4.042029   -1.734613
     36          1           0        2.559900    2.782893    1.207322
     37          1           0        3.088493    1.147359    1.806183
     38          1           0        0.519444    1.145102    1.029214
     39          1           0        3.892974   -0.767955   -2.477958
     40          1           0        5.763980    0.365069   -1.880756
     41          1           0        5.861478   -0.832231   -0.528392
     42          1           0        5.724754    1.949309   -0.212519
     43          1           0        5.154794    0.796389    1.033535
     44          1           0       -0.195388    0.656979   -1.935220
     45          1           0        0.883421   -0.746140   -2.297592
     46          1           0        0.679332   -1.092457    2.460668
     47          1           0        1.028034   -2.724831    3.158832
     48          1           0        2.295293   -1.453165    3.179139
     49          1           0        0.242791   -3.617480    1.065533
     50          1           0        1.314583   -3.238645   -1.567184
     51          1           0        2.574548   -4.247083   -0.724119
     52          1           0        0.876421   -4.840519   -0.855057
     53          1           0       -3.913744    1.066193    0.459958
     54          1           0       -5.532917   -2.310316    1.572906
     55          1           0       -5.451972   -0.621095    0.986192
     56          1           0       -4.377015   -1.153511    2.338927
     57          1           0       -3.831066   -3.967845    1.042126
     58          1           0       -2.328291   -3.550041    0.155937
     59          1           0       -2.559548   -2.973056    1.850500
     60          1           0       -3.776952   -2.802130   -1.408015
     61          1           0       -4.473833    1.645835   -1.901900
     62          1           0       -5.175595    0.088936   -1.355629
     63          1           0       -3.726695    0.096950   -2.449091
     64          1           0       -0.035885    5.552777    0.102330
     65          1           0       -2.119131    3.702616   -2.174821
     66          1           0       -1.045835    5.125601   -1.970954
     67          1           0       -0.322271    3.485666   -2.222699
     68          1           0        0.025334    3.525123    2.311838
     69          1           0        0.474393    5.268342    2.380367
     70          1           0       -1.260224    4.788054    2.571547
     71          1           0       -1.301693    0.189501    1.145617
 ---------------------------------------------------------------------
 Rotational constants (GHZ):      0.1626358      0.1072945      0.0784942
 Leave Link  202 at Wed Mar 25 13:36:46 2015, MaxMem=  1073741824 cpu:         0.1
 (Enter /usr/local/research/Gaussian09/g09-revD.01/g09/l301.exe)
 Standard basis: def2SVP (5D, 7F)
 Ernie: Thresh=  0.10000D-02 Tol=  0.10000D-05 Strict=F.
 There are   695 symmetry adapted cartesian basis functions of A   symmetry.
 There are   661 symmetry adapted basis functions of A   symmetry.
   661 basis functions,  1109 primitive gaussians,   695 cartesian basis functions
   129 alpha electrons      129 beta electrons
       nuclear repulsion energy      4149.1978676047 Hartrees.
 IExCor= 1009 DFT=T Ex+Corr=PBE1PBE ExCW=0 ScaHFX=  0.250000
 ScaDFX=  0.750000  0.750000  1.000000  1.000000 ScalE2=  1.000000  1.000000
 IRadAn=      0 IRanWt=     -1 IRanGd=            0 ICorTp=0 IEmpDi=141
 NAtoms=   71 NActive=   71 NUniq=   71 SFac= 1.00D+00 NAtFMM=   60 NAOKFM=T Big=T
 Integral buffers will be    131072 words long.
 Raffenetti 2 integral format.
 Two-electron integral symmetry is turned on.
 R6Disp:  Grimme-D3(BJ) Dispersion energy=       -0.0889653589 Hartrees.
 Nuclear repulsion after empirical dispersion term =     4149.1089022458 Hartrees.
 ------------------------------------------------------------------------------
 Polarizable Continuum Model (PCM)
 =================================
 Model                : PCM (using non-symmetric T matrix).
 Atomic radii         : SMD-Coulomb.
 Polarization charges : Total charges.
 Charge compensation  : None.
 Solution method      : On-the-fly selection.
 Cavity type          : VdW (van der Waals Surface) (Alpha=1.000).
 Cavity algorithm     : GePol (No added spheres)
                        Default sphere list used, NSphG=   71.
                        Lebedev-Laikov grids with approx.  5.0 points / Ang**2.
                        Smoothing algorithm: Karplus/York (Gamma=1.0000).
                        Polarization charges: spherical gaussians, with
                                              point-specific exponents (IZeta= 3).
                        Self-potential: point-specific (ISelfS= 7).
                        Self-field    : sphere-specific E.n sum rule (ISelfD= 2).
 1st derivatives      : Analytical E(r).r(x)/FMM algorithm (CHGder, D1EAlg=3).
                        Cavity 1st derivative terms included.
 Solvent              : Dichloromethane, Eps=   8.930000 Eps(inf)=   2.028346
 ------------------------------------------------------------------------------
 GePol: Number of generator spheres                  =      71
 GePol: Total number of spheres                      =      71
 GePol: Number of exposed spheres                    =      70 ( 98.59%)
 GePol: Number of points                             =    4310
 GePol: Average weight of points                     =       0.12
 GePol: Minimum weight of points                     =   0.32D-11
 GePol: Maximum weight of points                     =    0.20498
 GePol: Number of points with low weight             =     297
 GePol: Fraction of low-weight points (<1% of avg)   =       6.89%
 GePol: Cavity surface area                          =    498.798 Ang**2
 GePol: Cavity volume                                =    552.643 Ang**3
 ------------------------------------------------------------------------------
 Atomic radii for non-electrostatic terms: SMD-CDS.
 ------------------------------------------------------------------------------
 PCM non-electrostatic energy =        -0.0106027933 Hartrees.
 Nuclear repulsion after PCM non-electrostatic terms =     4149.0982994525 Hartrees.
 Leave Link  301 at Wed Mar 25 13:36:46 2015, MaxMem=  1073741824 cpu:         1.0
 (Enter /usr/local/research/Gaussian09/g09-revD.01/g09/l302.exe)
 NPDir=0 NMtPBC=     1 NCelOv=     1 NCel=       1 NClECP=     1 NCelD=      1
         NCelK=      1 NCelE2=     1 NClLst=     1 CellRange=     0.0.
 One-electron integrals computed using PRISM.
   1 Symmetry operations used in ECPInt.
 ECPInt:  NShTT=   49770 NPrTT=  176674 LenC2=   42799 LenP2D=  100362.
 LDataN:  DoStor=T MaxTD1= 4 Len=   56
 NBasis=   661 RedAO= T EigKep=  5.14D-04  NBF=   661
 NBsUse=   661 1.00D-06 EigRej= -1.00D+00 NBFU=   661
 Precomputing XC quadrature grid using
 IXCGrd= 4 IRadAn=           0 IRanWt=          -1 IRanGd=           0 AccXCQ= 0.00D+00.
 Generated NRdTot=       0 NPtTot=           0 NUsed=           0 NTot=          32
 NSgBfM=   673   673   676   683   683 MxSgAt=    71 MxSgA2=    71.
 Leave Link  302 at Wed Mar 25 13:36:50 2015, MaxMem=  1073741824 cpu:        25.0
 (Enter /usr/local/research/Gaussian09/g09-revD.01/g09/l303.exe)
 DipDrv:  MaxL=1.
 Leave Link  303 at Wed Mar 25 13:36:50 2015, MaxMem=  1073741824 cpu:         2.1
 (Enter /usr/local/research/Gaussian09/g09-revD.01/g09/l401.exe)
 ExpMin= 1.22D-01 ExpMax= 2.27D+03 ExpMxC= 3.41D+02 IAcc=1 IRadAn=         1 AccDes= 0.00D+00
 Harris functional with IExCor= 1009 and IRadAn=       1 diagonalized for initial guess.
 HarFok:  IExCor= 1009 AccDes= 0.00D+00 IRadAn=         1 IDoV= 1 UseB2=F ITyADJ=14
 ICtDFT=  3500011 ScaDFX=  1.000000  1.000000  1.000000  1.000000
 FoFCou: FMM=F IPFlag=           0 FMFlag=      100000 FMFlg1=        2001
         NFxFlg=           0 DoJE=T BraDBF=F KetDBF=T FulRan=T
         wScrn=  0.000000 ICntrl=     500 IOpCl=  0 I1Cent=   200000004 NGrid=           0
         NMat0=    1 NMatS0=      1 NMatT0=    0 NMatD0=    1 NMtDS0=    0 NMtDT0=    0
 Petite list used in FoFCou.
 Harris En= -1628.83997134943    
 JPrj=0 DoOrth=F DoCkMO=F.
 Leave Link  401 at Wed Mar 25 13:36:56 2015, MaxMem=  1073741824 cpu:        43.6
 (Enter /usr/local/research/Gaussian09/g09-revD.01/g09/l502.exe)
 Closed shell SCF:
 Using DIIS extrapolation, IDIIS=  1040.
 Integral symmetry usage will be decided dynamically.
 IVT=     1478473 IEndB=     1478473 NGot=  1073741824 MDV=  1072763712
 LenX=  1072763712 LenY=  1072279992
 Requested convergence on RMS density matrix=1.00D-08 within 128 cycles.
 Requested convergence on MAX density matrix=1.00D-06.
 Requested convergence on             energy=1.00D-06.
 No special actions if energy rises.
 Fock matrices will be formed incrementally for  20 cycles.

 Cycle   1  Pass 1  IDiag  1:
 FoFJK:  IHMeth= 1 ICntrl=       0 DoSepK=F KAlg= 0 I1Cent=   0 FoldK=F
 IRaf= 970000000 NMat=   1 IRICut=       1 DoRegI=T DoRafI=F ISym2E= 0.
 FoFCou: FMM=T IPFlag=           0 FMFlag=      100000 FMFlg1=        2001
         NFxFlg=           0 DoJE=F BraDBF=F KetDBF=F FulRan=T
         wScrn=  0.000000 ICntrl=       0 IOpCl=  0 I1Cent=           0 NGrid=           0
         NMat0=    1 NMatS0=      1 NMatT0=    0 NMatD0=    1 NMtDS0=    0 NMtDT0=    0
 Symmetry not used in FoFCou.
 FMM levels:  10  Number of levels for PrismC:   9
 Inv3:  Mode=1 IEnd=    55728300.
 Iteration    1 A*A^-1 deviation from unit magnitude is 9.55D-15 for   2477.
 Iteration    1 A*A^-1 deviation from orthogonality  is 9.10D-15 for   3673   1988.
 Iteration    1 A^-1*A deviation from unit magnitude is 1.31D-14 for   2263.
 Iteration    1 A^-1*A deviation from orthogonality  is 3.57D-07 for   2465   2098.
 Iteration    2 A*A^-1 deviation from unit magnitude is 1.33D-14 for   2263.
 Iteration    2 A*A^-1 deviation from orthogonality  is 1.74D-14 for   2118    183.
 Iteration    2 A^-1*A deviation from unit magnitude is 2.00D-15 for     62.
 Iteration    2 A^-1*A deviation from orthogonality  is 9.99D-16 for   4089    491.
 E= -1627.71009558337    
 DIIS: error= 1.95D-02 at cycle   1 NSaved=   1.
 NSaved= 1 IEnMin= 1 EnMin= -1627.71009558337     IErMin= 1 ErrMin= 1.95D-02
 ErrMax= 1.95D-02  0.00D+00 EMaxC= 1.00D-01 BMatC= 7.92D-01 BMatP= 7.92D-01
 IDIUse=3 WtCom= 8.05D-01 WtEn= 1.95D-01
 Coeff-Com:  0.100D+01
 Coeff-En:   0.100D+01
 Coeff:      0.100D+01
 Gap=     0.164 Goal=   None    Shift=    0.000
 GapD=    0.164 DampG=1.000 DampE=0.500 DampFc=0.5000 IDamp=-1.
 Damping current iteration by 5.00D-01
 RMSDP=3.02D-03 MaxDP=1.72D-01              OVMax= 1.51D-01

 Cycle   2  Pass 1  IDiag  1:
 RMSU=  1.50D-03    CP:  9.87D-01
 E= -1627.99234501593     Delta-E=       -0.282249432562 Rises=F Damp=T
 DIIS: error= 7.56D-03 at cycle   2 NSaved=   2.
 NSaved= 2 IEnMin= 2 EnMin= -1627.99234501593     IErMin= 2 ErrMin= 7.56D-03
 ErrMax= 7.56D-03  0.00D+00 EMaxC= 1.00D-01 BMatC= 8.21D-02 BMatP= 7.92D-01
 IDIUse=3 WtCom= 9.24D-01 WtEn= 7.56D-02
 Coeff-Com:  0.153D+00 0.847D+00
 Coeff-En:   0.229D+00 0.771D+00
 Coeff:      0.159D+00 0.841D+00
 Gap=     0.169 Goal=   None    Shift=    0.000
 RMSDP=9.17D-04 MaxDP=6.08D-02 DE=-2.82D-01 OVMax= 1.40D-01

 Cycle   3  Pass 1  IDiag  1:
 RMSU=  8.90D-04    CP:  9.80D-01  8.64D-01
 E= -1628.38582872112     Delta-E=       -0.393483705194 Rises=F Damp=F
 DIIS: error= 8.45D-03 at cycle   3 NSaved=   3.
 NSaved= 3 IEnMin= 3 EnMin= -1628.38582872112     IErMin= 2 ErrMin= 7.56D-03
 ErrMax= 8.45D-03  0.00D+00 EMaxC= 1.00D-01 BMatC= 8.96D-02 BMatP= 8.21D-02
 IDIUse=3 WtCom= 9.15D-01 WtEn= 8.45D-02
 Coeff-Com:  0.340D-01 0.509D+00 0.458D+00
 Coeff-En:   0.000D+00 0.000D+00 0.100D+01
 Coeff:      0.311D-01 0.466D+00 0.503D+00
 Gap=     0.166 Goal=   None    Shift=    0.000
 RMSDP=5.76D-04 MaxDP=4.46D-02 DE=-3.93D-01 OVMax= 5.58D-02

 Cycle   4  Pass 1  IDiag  1:
 RMSU=  3.89D-04    CP:  9.84D-01  9.30D-01  5.39D-01
 E= -1628.45153614555     Delta-E=       -0.065707424432 Rises=F Damp=F
 DIIS: error= 3.57D-03 at cycle   4 NSaved=   4.
 NSaved= 4 IEnMin= 4 EnMin= -1628.45153614555     IErMin= 4 ErrMin= 3.57D-03
 ErrMax= 3.57D-03  0.00D+00 EMaxC= 1.00D-01 BMatC= 1.31D-02 BMatP= 8.21D-02
 IDIUse=3 WtCom= 9.64D-01 WtEn= 3.57D-02
 Coeff-Com:  0.408D-04 0.102D+00 0.291D+00 0.606D+00
 Coeff-En:   0.000D+00 0.000D+00 0.134D+00 0.866D+00
 Coeff:      0.394D-04 0.985D-01 0.286D+00 0.616D+00
 Gap=     0.162 Goal=   None    Shift=    0.000
 RMSDP=1.85D-04 MaxDP=1.42D-02 DE=-6.57D-02 OVMax= 1.75D-02

 Cycle   5  Pass 1  IDiag  1:
 RMSU=  9.88D-05    CP:  9.83D-01  9.14D-01  6.38D-01  6.72D-01
 E= -1628.46124842739     Delta-E=       -0.009712281837 Rises=F Damp=F
 DIIS: error= 9.48D-04 at cycle   5 NSaved=   5.
 NSaved= 5 IEnMin= 5 EnMin= -1628.46124842739     IErMin= 5 ErrMin= 9.48D-04
 ErrMax= 9.48D-04  0.00D+00 EMaxC= 1.00D-01 BMatC= 9.70D-04 BMatP= 1.31D-02
 IDIUse=3 WtCom= 9.91D-01 WtEn= 9.48D-03
 Coeff-Com: -0.164D-02 0.193D-01 0.123D+00 0.344D+00 0.515D+00
 Coeff-En:   0.000D+00 0.000D+00 0.000D+00 0.000D+00 0.100D+01
 Coeff:     -0.162D-02 0.191D-01 0.122D+00 0.340D+00 0.520D+00
 Gap=     0.165 Goal=   None    Shift=    0.000
 RMSDP=5.44D-05 MaxDP=3.57D-03 DE=-9.71D-03 OVMax= 4.81D-03

 Cycle   6  Pass 1  IDiag  1:
 RMSU=  3.49D-05    CP:  9.83D-01  9.13D-01  6.40D-01  7.06D-01  6.03D-01
 E= -1628.46199075025     Delta-E=       -0.000742322854 Rises=F Damp=F
 DIIS: error= 2.13D-04 at cycle   6 NSaved=   6.
 NSaved= 6 IEnMin= 6 EnMin= -1628.46199075025     IErMin= 6 ErrMin= 2.13D-04
 ErrMax= 2.13D-04  0.00D+00 EMaxC= 1.00D-01 BMatC= 6.90D-05 BMatP= 9.70D-04
 IDIUse=3 WtCom= 9.98D-01 WtEn= 2.13D-03
 Coeff-Com: -0.919D-03-0.203D-03 0.347D-01 0.113D+00 0.270D+00 0.583D+00
 Coeff-En:   0.000D+00 0.000D+00 0.000D+00 0.000D+00 0.000D+00 0.100D+01
 Coeff:     -0.917D-03-0.203D-03 0.346D-01 0.113D+00 0.270D+00 0.584D+00
 Gap=     0.165 Goal=   None    Shift=    0.000
 RMSDP=1.55D-05 MaxDP=8.96D-04 DE=-7.42D-04 OVMax= 1.59D-03

 Cycle   7  Pass 1  IDiag  1:
 RMSU=  8.88D-06    CP:  9.83D-01  9.13D-01  6.43D-01  7.10D-01  6.20D-01
                    CP:  6.52D-01
 E= -1628.46204393088     Delta-E=       -0.000053180636 Rises=F Damp=F
 DIIS: error= 5.67D-05 at cycle   7 NSaved=   7.
 NSaved= 7 IEnMin= 7 EnMin= -1628.46204393088     IErMin= 7 ErrMin= 5.67D-05
 ErrMax= 5.67D-05  0.00D+00 EMaxC= 1.00D-01 BMatC= 4.15D-06 BMatP= 6.90D-05
 IDIUse=1 WtCom= 1.00D+00 WtEn= 0.00D+00
 Coeff-Com: -0.332D-03-0.132D-02 0.999D-02 0.352D-01 0.106D+00 0.293D+00
 Coeff-Com:  0.557D+00
 Coeff:     -0.332D-03-0.132D-02 0.999D-02 0.352D-01 0.106D+00 0.293D+00
 Coeff:      0.557D+00
 Gap=     0.165 Goal=   None    Shift=    0.000
 RMSDP=3.86D-06 MaxDP=2.97D-04 DE=-5.32D-05 OVMax= 4.08D-04

 Cycle   8  Pass 1  IDiag  1:
 RMSU=  2.70D-06    CP:  9.83D-01  9.14D-01  6.43D-01  7.10D-01  6.28D-01
                    CP:  6.78D-01  7.25D-01
 E= -1628.46204715092     Delta-E=       -0.000003220038 Rises=F Damp=F
 DIIS: error= 2.19D-05 at cycle   8 NSaved=   8.
 NSaved= 8 IEnMin= 8 EnMin= -1628.46204715092     IErMin= 8 ErrMin= 2.19D-05
 ErrMax= 2.19D-05  0.00D+00 EMaxC= 1.00D-01 BMatC= 5.64D-07 BMatP= 4.15D-06
 IDIUse=1 WtCom= 1.00D+00 WtEn= 0.00D+00
 Coeff-Com: -0.971D-04-0.700D-03 0.266D-02 0.948D-02 0.364D-01 0.113D+00
 Coeff-Com:  0.315D+00 0.524D+00
 Coeff:     -0.971D-04-0.700D-03 0.266D-02 0.948D-02 0.364D-01 0.113D+00
 Coeff:      0.315D+00 0.524D+00
 Gap=     0.165 Goal=   None    Shift=    0.000
 RMSDP=1.36D-06 MaxDP=1.29D-04 DE=-3.22D-06 OVMax= 1.33D-04

 Cycle   9  Pass 1  IDiag  1:
 RMSU=  1.03D-06    CP:  9.83D-01  9.14D-01  6.43D-01  7.10D-01  6.31D-01
                    CP:  6.83D-01  7.47D-01  7.09D-01
 E= -1628.46204755458     Delta-E=       -0.000000403664 Rises=F Damp=F
 DIIS: error= 9.37D-06 at cycle   9 NSaved=   9.
 NSaved= 9 IEnMin= 9 EnMin= -1628.46204755458     IErMin= 9 ErrMin= 9.37D-06
 ErrMax= 9.37D-06  0.00D+00 EMaxC= 1.00D-01 BMatC= 8.11D-08 BMatP= 5.64D-07
 IDIUse=1 WtCom= 1.00D+00 WtEn= 0.00D+00
 Coeff-Com:  0.489D-05-0.166D-03-0.176D-03-0.952D-03 0.226D-02 0.118D-01
 Coeff-Com:  0.758D-01 0.301D+00 0.610D+00
 Coeff:      0.489D-05-0.166D-03-0.176D-03-0.952D-03 0.226D-02 0.118D-01
 Coeff:      0.758D-01 0.301D+00 0.610D+00
 Gap=     0.165 Goal=   None    Shift=    0.000
 RMSDP=5.36D-07 MaxDP=4.16D-05 DE=-4.04D-07 OVMax= 4.68D-05

 Cycle  10  Pass 1  IDiag  1:
 RMSU=  3.68D-07    CP:  9.83D-01  9.14D-01  6.43D-01  7.10D-01  6.31D-01
                    CP:  6.84D-01  7.61D-01  7.58D-01  7.07D-01
 E= -1628.46204761457     Delta-E=       -0.000000059989 Rises=F Damp=F
 DIIS: error= 2.35D-06 at cycle  10 NSaved=  10.
 NSaved=10 IEnMin=10 EnMin= -1628.46204761457     IErMin=10 ErrMin= 2.35D-06
 ErrMax= 2.35D-06  0.00D+00 EMaxC= 1.00D-01 BMatC= 9.01D-09 BMatP= 8.11D-08
 IDIUse=1 WtCom= 1.00D+00 WtEn= 0.00D+00
 Coeff-Com:  0.124D-04-0.309D-04-0.345D-03-0.148D-02-0.218D-02-0.445D-02
 Coeff-Com:  0.967D-02 0.116D+00 0.340D+00 0.543D+00
 Coeff:      0.124D-04-0.309D-04-0.345D-03-0.148D-02-0.218D-02-0.445D-02
 Coeff:      0.967D-02 0.116D+00 0.340D+00 0.543D+00
 Gap=     0.165 Goal=   None    Shift=    0.000
 RMSDP=1.81D-07 MaxDP=1.08D-05 DE=-6.00D-08 OVMax= 3.02D-05

 Cycle  11  Pass 1  IDiag  1:
 RMSU=  1.18D-07    CP:  9.83D-01  9.14D-01  6.43D-01  7.10D-01  6.31D-01
                    CP:  6.84D-01  7.64D-01  7.74D-01  7.61D-01  7.12D-01
 E= -1628.46204762195     Delta-E=       -0.000000007381 Rises=F Damp=F
 DIIS: error= 6.96D-07 at cycle  11 NSaved=  11.
 NSaved=11 IEnMin=11 EnMin= -1628.46204762195     IErMin=11 ErrMin= 6.96D-07
 ErrMax= 6.96D-07  0.00D+00 EMaxC= 1.00D-01 BMatC= 6.89D-10 BMatP= 9.01D-09
 IDIUse=1 WtCom= 1.00D+00 WtEn= 0.00D+00
 Coeff-Com:  0.618D-05 0.132D-05-0.151D-03-0.652D-03-0.130D-02-0.346D-02
 Coeff-Com: -0.335D-02 0.286D-01 0.109D+00 0.270D+00 0.601D+00
 Coeff:      0.618D-05 0.132D-05-0.151D-03-0.652D-03-0.130D-02-0.346D-02
 Coeff:     -0.335D-02 0.286D-01 0.109D+00 0.270D+00 0.601D+00
 Gap=     0.165 Goal=   None    Shift=    0.000
 RMSDP=6.22D-08 MaxDP=4.87D-06 DE=-7.38D-09 OVMax= 1.28D-05

 Cycle  12  Pass 1  IDiag  1:
 RMSU=  4.51D-08    CP:  9.83D-01  9.14D-01  6.43D-01  7.10D-01  6.31D-01
                    CP:  6.84D-01  7.64D-01  7.80D-01  7.76D-01  7.42D-01
                    CP:  7.19D-01
 E= -1628.46204762277     Delta-E=       -0.000000000812 Rises=F Damp=F
 DIIS: error= 2.25D-07 at cycle  12 NSaved=  12.
 NSaved=12 IEnMin=12 EnMin= -1628.46204762277     IErMin=12 ErrMin= 2.25D-07
 ErrMax= 2.25D-07  0.00D+00 EMaxC= 1.00D-01 BMatC= 8.15D-11 BMatP= 6.89D-10
 IDIUse=1 WtCom= 1.00D+00 WtEn= 0.00D+00
 Coeff-Com:  0.169D-05 0.329D-05-0.350D-04-0.156D-03-0.400D-03-0.123D-02
 Coeff-Com: -0.300D-02 0.379D-03 0.135D-01 0.630D-01 0.300D+00 0.628D+00
 Coeff:      0.169D-05 0.329D-05-0.350D-04-0.156D-03-0.400D-03-0.123D-02
 Coeff:     -0.300D-02 0.379D-03 0.135D-01 0.630D-01 0.300D+00 0.628D+00
 Gap=     0.165 Goal=   None    Shift=    0.000
 RMSDP=1.94D-08 MaxDP=1.60D-06 DE=-8.12D-10 OVMax= 3.64D-06

 Cycle  13  Pass 1  IDiag  1:
 RMSU=  1.34D-08    CP:  9.83D-01  9.14D-01  6.43D-01  7.10D-01  6.31D-01
                    CP:  6.84D-01  7.64D-01  7.82D-01  7.79D-01  7.58D-01
                    CP:  7.85D-01  8.11D-01
 E= -1628.46204762288     Delta-E=       -0.000000000111 Rises=F Damp=F
 DIIS: error= 4.94D-08 at cycle  13 NSaved=  13.
 NSaved=13 IEnMin=13 EnMin= -1628.46204762288     IErMin=13 ErrMin= 4.94D-08
 ErrMax= 4.94D-08  0.00D+00 EMaxC= 1.00D-01 BMatC= 8.41D-12 BMatP= 8.15D-11
 IDIUse=1 WtCom= 1.00D+00 WtEn= 0.00D+00
 Coeff-Com:  0.181D-06 0.979D-06 0.389D-05 0.925D-05-0.187D-04-0.121D-03
 Coeff-Com: -0.936D-03-0.332D-02-0.712D-02-0.611D-02 0.682D-01 0.296D+00
 Coeff-Com:  0.653D+00
 Coeff:      0.181D-06 0.979D-06 0.389D-05 0.925D-05-0.187D-04-0.121D-03
 Coeff:     -0.936D-03-0.332D-02-0.712D-02-0.611D-02 0.682D-01 0.296D+00
 Coeff:      0.653D+00
 Gap=     0.165 Goal=   None    Shift=    0.000
 RMSDP=6.65D-09 MaxDP=4.08D-07 DE=-1.11D-10 OVMax= 1.04D-06

 Error on total polarization charges =  0.04784
 SCF Done:  E(RPBE1PBE) =  -1628.46204762     A.U. after   13 cycles
            NFock= 13  Conv=0.67D-08     -V/T= 2.0107
 KE= 1.611262557406D+03 PE=-1.209339815973D+04 EE= 4.704575255248D+03
 SMD-CDS (non-electrostatic) energy       (kcal/mol) =      -6.65
 (included in total energy above)
 Leave Link  502 at Wed Mar 25 13:52:28 2015, MaxMem=  1073741824 cpu:      7440.2
 (Enter /usr/local/research/Gaussian09/g09-revD.01/g09/l601.exe)
 Copying SCF densities to generalized density rwf, IOpCl= 0 IROHF=0.

 **********************************************************************

            Population analysis using the SCF density.

 **********************************************************************

 Orbital symmetries:
       Occupied  (A) (A) (A) (A) (A) (A) (A) (A) (A) (A) (A) (A)
                 (A) (A) (A) (A) (A) (A) (A) (A) (A) (A) (A) (A)
                 (A) (A) (A) (A) (A) (A) (A) (A) (A) (A) (A) (A)
                 (A) (A) (A) (A) (A) (A) (A) (A) (A) (A) (A) (A)
                 (A) (A) (A) (A) (A) (A) (A) (A) (A) (A) (A) (A)
                 (A) (A) (A) (A) (A) (A) (A) (A) (A) (A) (A) (A)
                 (A) (A) (A) (A) (A) (A) (A) (A) (A) (A) (A) (A)
                 (A) (A) (A) (A) (A) (A) (A) (A) (A) (A) (A) (A)
                 (A) (A) (A) (A) (A) (A) (A) (A) (A) (A) (A) (A)
                 (A) (A) (A) (A) (A) (A) (A) (A) (A) (A) (A) (A)
                 (A) (A) (A) (A) (A) (A) (A) (A) (A)
       Virtual   (A) (A) (A) (A) (A) (A) (A) (A) (A) (A) (A) (A)
                 (A) (A) (A) (A) (A) (A) (A) (A) (A) (A) (A) (A)
                 (A) (A) (A) (A) (A) (A) (A) (A) (A) (A) (A) (A)
                 (A) (A) (A) (A) (A) (A) (A) (A) (A) (A) (A) (A)
                 (A) (A) (A) (A) (A) (A) (A) (A) (A) (A) (A) (A)
                 (A) (A) (A) (A) (A) (A) (A) (A) (A) (A) (A) (A)
                 (A) (A) (A) (A) (A) (A) (A) (A) (A) (A) (A) (A)
                 (A) (A) (A) (A) (A) (A) (A) (A) (A) (A) (A) (A)
                 (A) (A) (A) (A) (A) (A) (A) (A) (A) (A) (A) (A)
                 (A) (A) (A) (A) (A) (A) (A) (A) (A) (A) (A) (A)
                 (A) (A) (A) (A) (A) (A) (A) (A) (A) (A) (A) (A)
                 (A) (A) (A) (A) (A) (A) (A) (A) (A) (A) (A) (A)
                 (A) (A) (A) (A) (A) (A) (A) (A) (A) (A) (A) (A)
                 (A) (A) (A) (A) (A) (A) (A) (A) (A) (A) (A) (A)
                 (A) (A) (A) (A) (A) (A) (A) (A) (A) (A) (A) (A)
                 (A) (A) (A) (A) (A) (A) (A) (A) (A) (A) (A) (A)
                 (A) (A) (A) (A) (A) (A) (A) (A) (A) (A) (A) (A)
                 (A) (A) (A) (A) (A) (A) (A) (A) (A) (A) (A) (A)
                 (A) (A) (A) (A) (A) (A) (A) (A) (A) (A) (A) (A)
                 (A) (A) (A) (A) (A) (A) (A) (A) (A) (A) (A) (A)
                 (A) (A) (A) (A) (A) (A) (A) (A) (A) (A) (A) (A)
                 (A) (A) (A) (A) (A) (A) (A) (A) (A) (A) (A) (A)
                 (A) (A) (A) (A) (A) (A) (A) (A) (A) (A) (A) (A)
                 (A) (A) (A) (A) (A) (A) (A) (A) (A) (A) (A) (A)
                 (A) (A) (A) (A) (A) (A) (A) (A) (A) (A) (A) (A)
                 (A) (A) (A) (A) (A) (A) (A) (A) (A) (A) (A) (A)
                 (A) (A) (A) (A) (A) (A) (A) (A) (A) (A) (A) (A)
                 (A) (A) (A) (A) (A) (A) (A) (A) (A) (A) (A) (A)
                 (A) (A) (A) (A) (A) (A) (A) (A) (A) (A) (A) (A)
                 (A) (A) (A) (A) (A) (A) (A) (A) (A) (A) (A) (A)
                 (A) (A) (A) (A) (A) (A) (A) (A) (A) (A) (A) (A)
                 (A) (A) (A) (A) (A) (A) (A) (A) (A) (A) (A) (A)
                 (A) (A) (A) (A) (A) (A) (A) (A) (A) (A) (A) (A)
                 (A) (A) (A) (A) (A) (A) (A) (A) (A) (A) (A) (A)
                 (A) (A) (A) (A) (A) (A) (A) (A) (A) (A) (A) (A)
                 (A) (A) (A) (A) (A) (A) (A) (A) (A) (A) (A) (A)
                 (A) (A) (A) (A) (A) (A) (A) (A) (A) (A) (A) (A)
                 (A) (A) (A) (A) (A) (A) (A) (A) (A) (A) (A) (A)
                 (A) (A) (A) (A) (A) (A) (A) (A) (A) (A) (A) (A)
                 (A) (A) (A) (A) (A) (A) (A) (A) (A) (A) (A) (A)
                 (A) (A) (A) (A) (A) (A) (A) (A) (A) (A) (A) (A)
                 (A) (A) (A) (A) (A) (A) (A) (A) (A) (A) (A) (A)
                 (A) (A) (A) (A) (A) (A) (A) (A) (A) (A) (A) (A)
                 (A) (A) (A) (A) (A) (A) (A) (A) (A) (A) (A) (A)
                 (A) (A) (A) (A)
 The electronic state is 1-A.
 Alpha  occ. eigenvalues --  -19.26411 -19.25021 -19.23760 -19.22756 -19.21826
 Alpha  occ. eigenvalues --  -19.21206 -19.20488 -19.20210 -14.37977 -10.38273
 Alpha  occ. eigenvalues --  -10.37805 -10.36577 -10.31739 -10.30780 -10.30511
 Alpha  occ. eigenvalues --  -10.29791 -10.29416 -10.26468 -10.25823 -10.25754
 Alpha  occ. eigenvalues --  -10.25475 -10.24502 -10.24393 -10.24308 -10.24051
 Alpha  occ. eigenvalues --  -10.23273 -10.23154 -10.23116 -10.22697 -10.22640
 Alpha  occ. eigenvalues --  -10.22624 -10.22602 -10.22581 -10.22481  -1.11576
 Alpha  occ. eigenvalues --   -1.10705  -1.09059  -1.03863  -1.03690  -1.02678
 Alpha  occ. eigenvalues --   -1.01710  -1.01259  -0.95454  -0.83618  -0.83314
 Alpha  occ. eigenvalues --   -0.82287  -0.80944  -0.79390  -0.77851  -0.74627
 Alpha  occ. eigenvalues --   -0.73946  -0.73655  -0.72979  -0.71313  -0.69527
 Alpha  occ. eigenvalues --   -0.68042  -0.67066  -0.65413  -0.65103  -0.62519
 Alpha  occ. eigenvalues --   -0.61560  -0.60217  -0.59569  -0.58536  -0.57092
 Alpha  occ. eigenvalues --   -0.56813  -0.56044  -0.54745  -0.52991  -0.52386
 Alpha  occ. eigenvalues --   -0.51160  -0.49727  -0.49615  -0.49158  -0.48654
 Alpha  occ. eigenvalues --   -0.48408  -0.48181  -0.47525  -0.46816  -0.46602
 Alpha  occ. eigenvalues --   -0.45831  -0.45448  -0.45163  -0.44891  -0.44634
 Alpha  occ. eigenvalues --   -0.44074  -0.43695  -0.43053  -0.42814  -0.42371
 Alpha  occ. eigenvalues --   -0.41551  -0.41465  -0.41305  -0.40626  -0.40408
 Alpha  occ. eigenvalues --   -0.39909  -0.39772  -0.39470  -0.39242  -0.38889
 Alpha  occ. eigenvalues --   -0.38776  -0.38600  -0.38006  -0.37737  -0.37460
 Alpha  occ. eigenvalues --   -0.37268  -0.36864  -0.36627  -0.36596  -0.36468
 Alpha  occ. eigenvalues --   -0.36190  -0.35925  -0.35713  -0.34965  -0.34077
 Alpha  occ. eigenvalues --   -0.33749  -0.33357  -0.33230  -0.31413  -0.31062
 Alpha  occ. eigenvalues --   -0.30110  -0.29606  -0.28289  -0.27741  -0.27547
 Alpha  occ. eigenvalues --   -0.26789  -0.26187  -0.24790  -0.21831
 Alpha virt. eigenvalues --   -0.05335  -0.04247  -0.03545   0.00904   0.04886
 Alpha virt. eigenvalues --    0.05218   0.06082   0.06456   0.07093   0.07490
 Alpha virt. eigenvalues --    0.08100   0.08695   0.08978   0.09717   0.09879
 Alpha virt. eigenvalues --    0.10207   0.10595   0.10994   0.11294   0.11555
 Alpha virt. eigenvalues --    0.12037   0.12430   0.13381   0.13502   0.14177
 Alpha virt. eigenvalues --    0.14284   0.14534   0.14982   0.15187   0.15447
 Alpha virt. eigenvalues --    0.15548   0.15764   0.16359   0.16737   0.17038
 Alpha virt. eigenvalues --    0.17509   0.17642   0.17961   0.18318   0.18571
 Alpha virt. eigenvalues --    0.18817   0.19036   0.19603   0.19772   0.19924
 Alpha virt. eigenvalues --    0.20078   0.20811   0.21313   0.22025   0.22095
 Alpha virt. eigenvalues --    0.22936   0.23706   0.23986   0.24462   0.24680
 Alpha virt. eigenvalues --    0.24907   0.25395   0.25552   0.25850   0.26657
 Alpha virt. eigenvalues --    0.28008   0.28167   0.28546   0.28699   0.29400
 Alpha virt. eigenvalues --    0.29882   0.30273   0.31179   0.32277   0.33511
 Alpha virt. eigenvalues --    0.34792   0.35318   0.35468   0.36141   0.36619
 Alpha virt. eigenvalues --    0.38115   0.38408   0.39558   0.41596   0.43304
 Alpha virt. eigenvalues --    0.43654   0.44129   0.44470   0.45216   0.45650
 Alpha virt. eigenvalues --    0.45814   0.46200   0.46707   0.46983   0.47657
 Alpha virt. eigenvalues --    0.48292   0.48451   0.48695   0.49070   0.49167
 Alpha virt. eigenvalues --    0.49777   0.49904   0.50570   0.51090   0.51512
 Alpha virt. eigenvalues --    0.52018   0.52387   0.53256   0.53585   0.54002
 Alpha virt. eigenvalues --    0.54855   0.55126   0.55687   0.56662   0.57181
[...]
 29,0.00000986,-0.12296096,0.05861455,-0.18515735,-0.00000045,-0.000001
 06,0.00000270,-0.00003980,-0.00000789,0.00002112,-0.00000865,0.0000020
 3,-0.00001536,0.00000187,0.00000001,-0.00000106,0.00000687,-0.00000415
 ,0.00000750,0.00000059,-0.00000063,0.00000089,0.00000074,0.00000021,0.
 00000060,-0.00000022,-0.00000019,0.00000048,0.00003967,0.00003632,-0.0
 0001635,-0.00002201,-0.00004999,0.00006929,-0.00005380,0.00002441,-0.0
 0002527,0.00000532,0.00002501,-0.00004470,0.00012616,-0.00026114,-0.00
 004203,0.00003930,-0.00003949,0.00000486,0.00003799,0.00002683,0.00003
 481,-0.00000255,0.00001037,-0.00000408,-0.00001286,0.00001904,0.000002
 23,-0.00000273,0.00003145,-0.00000136,-0.00019939,0.00072612,-0.000103
 05,-0.00001968,0.00007086,0.00002112,0.00105897,-0.00215260,-0.0006650
 9,0.00163307,-0.00119729,-0.00189170,-0.00067922,-0.00005750,0.0011122
 9,-0.01695886,0.00977054,-0.02055060,0.00127438,0.00175847,0.00058068,
 0.00000260,-0.00000735,-0.00000281,0.00000623,0.00000208,0.00000207,-0
 .00000861,-0.00000448,-0.00001368,-0.00000044,-0.00000037,0.00000050,0
 .,-0.00000035,-0.00000008,0.00000080,0.00000017,0.00000023,0.00000249,
 -0.00000064,-0.00000075,0.00000069,0.00000128,0.00000148,0.00000386,-0
 .00000795,0.00000580,0.00000391,0.00000127,-0.00000199,-0.00000233,0.0
 0000137,-0.00000248,-0.00000070,-0.00000049,-0.00000005,0.00000158,0.0
 0000088,0.00000056,-0.00000045,-0.00000053,-0.00000052,0.00000019,-0.0
 0000089,0.00000090,-0.00000032,-0.00000049,-0.00000027,-0.00000019,0.0
 0000047,0.00000027,-0.00000783,0.00000329,0.00001504,-0.00000275,0.000
 00550,0.00000330,0.00000605,-0.00000190,0.00000071,0.00000045,-0.00000
 312,-0.00000173,0.00000434,0.00000847,0.00000201,-0.00000057,-0.000002
 39,-0.00000072,0.00000038,-0.00000282,-0.00000031,0.00000218,-0.000018
 82,0.00000447,0.00000859,-0.00000730,0.00000335,-0.00001631,0.00000370
 ,-0.00002769,0.00000218,-0.00000709,-0.00000447,0.00032483,0.00006270,
 0.00149849,-0.00008353,-0.00009876,0.00002250,0.00000505,-0.00011205,-
 0.00005159,0.00033710,-0.00005242,-0.00061840,0.00705165,-0.00174054,0
 .00782621,0.13068757,-0.06654255,0.20068746,0.00000450,-0.00000097,-0.
 00000203,-0.00001196,-0.00000056,0.00000227,0.00000528,-0.00000383,0.0
 0000236,0.00000257,-0.00000507,-0.00000489,-0.00000416,-0.00000053,-0.
 00000387,0.00000297,0.00000322,-0.00000077,-0.00000143,-0.00000183,-0.
 00000072,0.00000735,0.00000143,0.00000105,-0.00000508,-0.00000278,-0.0
 0000242,-0.16262665,-0.13426803,-0.02222317,-0.00000101,0.00000060,0.0
 0000083,0.00002310,0.00000468,-0.00001310,0.00000422,0.00000432,0.0000
 0522,0.00000004,-0.00000168,-0.00000104,-0.00000437,-0.00000196,-0.000
 00202,0.00000091,0.00000123,0.,-0.00000130,0.00000077,-0.00000153,0.00
 000083,-0.00000028,0.00000054,-0.00002291,-0.00001647,0.00001494,0.000
 01481,0.00003046,-0.00004976,0.00001978,0.00000043,0.00001728,-0.00000
 367,-0.00001864,0.00003372,-0.00004999,0.00015446,0.00004791,-0.000020
 65,0.00002877,-0.00000144,-0.00001924,-0.00002412,-0.00001509,0.000001
 87,-0.00000667,0.00000288,0.00000755,-0.00001083,-0.00000142,0.0000020
 1,-0.00002318,0.00000226,0.00023824,-0.00028949,0.00020756,0.00002006,
 -0.00005687,-0.00001871,-0.00092768,0.00060977,-0.00049064,-0.00083243
 ,0.00097665,-0.00075531,0.00028994,-0.00084221,-0.00001002,-0.00936785
 ,-0.01107666,-0.00044693,0.00078045,0.00005323,0.00101204,0.00000090,0
 .00000085,0.00000053,-0.00000126,-0.00000052,-0.00000056,0.00000285,0.
 00000529,0.00000575,0.00000010,-0.00000054,0.00000019,-0.00000038,0.00
 000004,0.00000061,-0.00000081,-0.00000039,-0.00000017,-0.00000294,0.00
 000063,0.00000065,-0.00000051,-0.00000059,-0.00000095,-0.00000085,0.00
 000319,-0.00000208,-0.00000160,-0.00000149,0.00000160,-0.00000013,-0.0
 0000062,0.00000138,0.00000038,-0.00000038,0.00000021,-0.00000054,0.000
 00030,0.,0.00000034,0.00000042,0.00000036,-0.00000022,0.00000051,-0.00
 000011,0.00000007,0.00000045,0.00000017,-0.00000015,-0.00000067,0.0000
 0007,0.00000932,0.00001689,-0.00001056,0.00000175,-0.00000400,-0.00000
 219,-0.00000423,0.00000148,-0.00000079,-0.00000030,0.00000212,0.000001
 67,-0.00000218,-0.00000541,-0.00000110,0.00000011,0.00000178,0.0000002
 6,-0.00000043,0.00000224,0.00000065,-0.00000164,0.00001317,-0.00000372
 ,-0.00000656,0.00000479,-0.00000572,0.00001263,-0.00000304,0.00001952,
 -0.00000201,0.00000480,0.00000331,0.00080245,0.00078598,0.00048240,-0.
 00024301,-0.00000863,0.00027615,-0.00007155,0.00002048,0.00000027,-0.0
 0005047,0.00008733,-0.00008831,0.01121471,0.01162445,0.00191267,-0.012
 52392,-0.01386728,-0.00154791,0.17331938,-0.00000077,0.00000022,-0.000
 00168,-0.00000369,-0.00000414,0.00000533,0.00000393,0.00000148,-0.0000
 0131,0.00000262,0.00000011,-0.00000359,-0.00000398,0.00000256,-0.00000
 233,0.00000052,0.00000111,-0.00000117,-0.00000037,-0.00000065,-0.00000
 014,0.00000346,0.00000060,0.00000029,-0.00000063,-0.00000119,0.0000042
 2,-0.13268119,-0.18768457,-0.02961488,-0.00000104,0.00000042,0.0000020
 7,-0.00000059,-0.00000002,-0.00000262,-0.00000234,0.00000651,-0.000005
 23,0.00000162,-0.00000209,-0.00000243,0.00000083,-0.00000531,0.0000035
 6,0.00000121,0.00000073,0.00000144,-0.00000098,0.00000131,-0.00000154,
 0.00000089,-0.00000046,0.00000110,0.00000647,-0.00001166,0.00000735,-0
 .00001127,0.00001609,-0.00001083,0.00000602,-0.00000590,-0.00003295,0.
 00000383,-0.00000593,0.00001192,-0.00001852,-0.00000372,-0.00001335,-0
 .00000950,0.00000494,-0.00000571,0.00001077,-0.00002123,0.00002562,-0.
 00000295,-0.00000189,-0.00000172,0.00000249,-0.00000135,-0.00000131,0.
 00000742,-0.00000167,0.00000822,-0.00019947,-0.00014603,-0.00017866,-0
 .00001716,0.00001011,0.00000266,0.00025465,-0.00024530,-0.00035791,-0.
 00082890,0.00237381,-0.00021740,0.00014925,0.00038044,0.00051562,-0.00
 225012,-0.00493204,0.00390932,0.00029906,0.00000388,0.00049571,0.00000
 152,-0.00000187,-0.00000019,0.00000172,0.00000034,0.00000022,-0.000001
 09,0.00000159,-0.00000254,-0.00000020,-0.00000075,0.00000067,-0.000000
 38,-0.00000004,0.00000055,-0.00000032,-0.00000029,-0.00000014,-0.00000
 098,0.00000022,0.00000007,-0.00000020,0.00000026,-0.00000002,0.0000016
 4,0.00000041,0.00000056,0.00000031,-0.00000075,0.00000033,-0.00000132,
 0.00000006,-0.00000074,0.00000010,-0.00000029,-0.00000006,0.00000037,0
 .00000090,0.00000021,0.00000001,0.00000012,-0.00000020,-0.00000012,-0.
 00000002,0.00000080,-0.00000022,0.00000011,-0.00000001,-0.00000052,-0.
 00000052,0.00000030,-0.00001210,-0.00001018,0.00000021,0.00000072,-0.0
 0000083,0.00000011,0.00000074,0.00000097,0.00000057,-0.00000047,0.0000
 0114,0.00000106,-0.00000016,-0.00000120,0.00000002,0.00000014,0.000000
 66,-0.00000012,0.00000038,0.00000100,0.00000087,-0.00000254,0.00000070
 ,-0.00000116,0.00000472,0.00000177,0.00000532,-0.00000210,0.00000003,0
 .,0.00000203,-0.00000019,0.00000249,-0.00040274,-0.00012158,0.00027387
 ,-0.00010648,-0.00000973,0.00004211,0.00001217,-0.00000375,-0.00003890
 ,0.00006962,-0.00002532,-0.00009441,-0.01764209,-0.01515528,-0.0023648
 9,0.00728243,0.00666079,0.00117866,0.14607200,0.19892223,-0.00000507,-
 0.00000046,0.00000213,0.00000912,-0.00000066,0.00000256,-0.00000289,0.
 00000361,-0.00000475,0.00000111,0.00000648,0.00000439,0.00000024,0.000
 00236,0.00000203,-0.00000213,-0.00000352,-0.00000034,0.00000092,0.0000
 0147,0.00000061,-0.00000450,-0.00000191,-0.00000118,0.00000414,0.00000
 336,0.00000725,-0.02034834,-0.02661180,-0.04335790,0.00000032,-0.00000
 058,0.00000084,-0.00003168,-0.00000303,0.00001660,-0.00000490,-0.00000
 115,-0.00001109,0.00000078,0.00000059,-0.00000106,0.00000415,-0.000000
 97,0.00000535,0.00000023,-0.00000059,0.00000122,0.00000055,-0.00000020
 ,0.00000114,-0.00000023,0.00000002,0.00000016,0.00003538,0.00002055,-0
 .00001724,-0.00003061,-0.00004122,0.00006572,-0.00004932,0.00001931,-0
 .00002567,0.00000610,0.00002144,-0.00004155,0.00012181,-0.00027350,-0.
 00006255,0.00003845,-0.00003667,0.00000458,0.00003290,0.00002568,0.000
 03412,-0.00000263,0.00001001,-0.00000404,-0.00001264,0.00001789,0.0000
 0213,-0.00000409,0.00002811,-0.00000256,-0.00027812,0.00072263,-0.0003
 4483,-0.00002780,0.00008958,0.00002863,0.00278140,-0.00135718,0.000226
 10,0.00018524,0.00030585,-0.00155743,-0.00093523,0.00009092,0.00060915
 ,0.01941621,0.02358089,0.00238694,-0.00182941,-0.00062022,-0.00182858,
 0.00000056,-0.00000227,-0.00000176,0.00000381,0.00000157,0.00000104,-0
 .00000695,-0.00000673,-0.00001039,-0.00000027,0.00000019,0.00000021,0.
 00000009,-0.00000013,-0.00000018,0.00000069,0.00000025,0.00000012,0.00
 000183,-0.00000027,-0.00000029,0.00000057,0.00000063,0.00000091,0.0000
 0252,-0.00000383,0.00000231,0.00000310,0.00000088,-0.00000256,-0.00000
 142,0.00000085,-0.00000256,-0.00000036,0.00000010,-0.00000015,0.000001
 16,0.00000066,0.00000015,-0.00000034,-0.00000030,-0.00000042,0.0000001
 3,-0.00000070,0.00000064,-0.00000024,-0.00000039,-0.00000008,-0.000000
 05,0.00000032,0.00000018,-0.00001274,0.00000224,0.00001249,-0.00000245
 ,0.00000467,0.00000336,0.00000541,-0.00000166,0.00000056,0.00000059,-0
 .00000228,-0.00000170,0.00000423,0.00000772,0.00000186,-0.00000054,-0.
 00000223,-0.00000043,0.00000044,-0.00000257,-0.00000067,0.00000234,-0.
 00001643,0.00000484,0.00000695,-0.00000679,0.00000468,-0.00002077,0.00
 000466,-0.00003177,0.00000335,-0.00000745,-0.00000257,-0.00070642,-0.0
 0084660,0.00016191,0.00047642,0.00001626,-0.00062426,0.00012093,-0.000
 04107,-0.00001104,-0.00006147,-0.00008635,0.00029513,-0.00626222,-0.00
 502558,-0.00202513,-0.01421628,-0.01642592,-0.00266371,0.02163309,0.02
 647251,0.04878693,-0.00005523,0.00004122,0.00009581,0.00024028,-0.0000
 0488,-0.00007388,-0.00012431,0.00014183,-0.00020480,-0.00018568,-0.000
 29683,0.00039621,0.00002159,-0.00007397,0.00007577,-0.00004504,-0.0000
 5899,0.00003309,0.00002436,0.00003252,0.00001162,-0.00009491,-0.000032
 00,-0.00003086,0.00007487,0.00003640,-0.00002372,0.00007864,0.00011245
 ,-0.00008952,0.00004789,-0.00000820,-0.00005866,-0.00120549,0.00058512
 ,0.00048761,-0.00005583,-0.00015397,0.00001568,-0.00004777,0.00007641,
 0.00007761,0.00005940,0.00008693,-0.00002571,-0.00007394,-0.00009801,0
 .00000274,0.00004948,-0.00005887,0.00004986,-0.00003712,0.00001908,-0.
 00002705,-0.00173243,-0.00014993,0.00077144,0.00550403,-0.00232386,0.0
 0062910,-0.01331484,0.01497528,-0.00034187,-0.00140335,0.00079984,-0.0
 0012719,-0.00202870,0.00228989,-0.00031893,-0.00073079,-0.00090786,-0.
 00125754,-0.16864457,0.22934418,0.03054746,0.00003675,-0.00018390,0.00
 011970,0.00022948,-0.00044494,-0.00017475,0.00026486,0.00007394,0.0003
 3491,0.00271755,0.00259690,0.00098059,0.00035655,0.00038935,-0.0000827
 2,-0.00190844,-0.00573004,0.00176496,-0.00006241,0.00038339,-0.0003887
 1,0.00077123,0.00094830,-0.00071215,-0.00028308,-0.00013650,0.00041949
 ,0.00002419,0.00017072,-0.00010131,0.00004197,-0.00005361,0.00000801,0
 .00000164,0.00000951,0.00000712,0.00011579,0.00054438,-0.00022950,0.00
 000516,0.00001523,-0.00001022,0.00001050,-0.00000069,-0.00001019,0.000
 01399,0.00000489,0.00000233,0.00004703,-0.00000454,-0.00000637,0.00000
 400,0.00000662,0.00000887,0.00013202,0.00000244,-0.00024409,0.00018017
 ,-0.00001780,-0.00021759,-0.00003068,-0.00015659,-0.00011248,0.0000309
 2,0.00006018,0.00000831,0.00003284,0.00003117,-0.00000080,-0.00000509,
 0.00000397,0.00000215,0.00001163,-0.00000442,-0.00002043,0.00000016,-0
 .00000457,-0.00000063,0.00001459,0.00001394,-0.00001004,-0.00040849,-0
 .00011840,-0.00013506,0.00006161,-0.00008079,-0.00006193,-0.00003898,0
 .00005318,-0.00000549,-0.00020193,0.00016624,-0.00001378,-0.00005603,-
 0.00017547,0.00014740,-0.00004374,-0.00004753,0.00013254,0.00025315,0.
 00027277,0.00024077,0.00012967,-0.00000012,-0.00015240,0.00016485,-0.0
 0000026,0.00024103,0.00006506,-0.00002216,0.00011838,0.00000883,0.0000
 0419,0.00012988,-0.00003027,0.00007794,-0.00002640,-0.00002182,-0.0000
 5512,-0.00001561,-0.00005333,0.00005799,0.00004240,0.00006895,0.000017
 35,0.00008714,-0.00000668,-0.00005618,0.00008517,0.00000365,0.00001048
 ,-0.00004760,0.00002463,0.00000182,-0.00004516,0.18100699,-0.00001598,
 -0.00004980,0.00009854,0.00001581,-0.00004994,0.00003114,0.00003259,-0
 .00005708,0.00010277,0.00012303,0.00005950,-0.00024167,-0.00012070,0.0
 0008698,-0.00017560,-0.00007487,0.00003427,0.00005019,0.00000171,-0.00
 000388,0.00000051,0.00000252,0.00000378,0.00001865,0.00008789,-0.00003
 834,-0.00003999,0.00005843,0.00009198,-0.00003646,-0.00000859,-0.00000
 265,0.00000015,-0.00157371,0.00016637,0.00039855,-0.00015938,0.0000974
 4,0.00001452,0.00001295,0.00003506,0.00005859,0.00008134,-0.00007734,0
 .00000616,0.00001579,-0.00019270,0.00005989,0.00004736,-0.00002689,0.0
 0002567,-0.00002298,0.00000296,-0.00000960,0.00151203,-0.00031431,-0.0
 0273215,0.00010260,-0.00070232,0.00170812,0.00685591,-0.01239105,0.001
 30530,0.00091131,0.00128335,-0.00259946,-0.00151301,0.00239917,-0.0013
 5067,0.00041225,-0.00000732,0.00232767,0.23656632,-0.32787442,-0.05907
 557,-0.00014796,0.00043865,0.00018216,-0.00004254,0.00022675,-0.000117
 46,0.00020525,-0.00033671,0.00006675,0.00027499,-0.00050713,-0.0005251
 1,-0.00011878,-0.00091070,-0.00015004,-0.00149146,-0.00192090,0.000509
 55,-0.00006837,0.00000764,-0.00010096,0.00042271,0.00002998,-0.0003793
 2,-0.00004640,-0.00014541,0.00030125,-0.00002891,-0.00001219,-0.000059
 71,0.00004017,-0.00003560,-0.00000131,0.00002114,0.00000330,-0.0000028
 2,-0.00000278,0.00021210,0.00005381,-0.00000316,-0.00000828,-0.0000011
 6,0.00000537,-0.00000417,-0.00000135,-0.00000185,-0.00000143,0.0000028
 1,0.00000526,-0.00000741,-0.00000224,-0.00000015,0.00000571,-0.0000003
 8,0.00027767,-0.00002701,-0.00031947,0.00007237,0.00000386,-0.00008432
 ,-0.00013385,0.00009932,-0.00015105,-0.00001058,-0.00000654,-0.0000160
 2,0.00006231,0.00006006,0.00000298,-0.00000162,-0.00002162,-0.00000732
 ,-0.00000045,-0.00001203,0.00000134,0.00000381,-0.00000101,-0.00000596
 ,0.00000908,0.00001096,-0.00000543,0.00009374,0.00000347,-0.00011248,-
 0.00015069,0.00007797,-0.00005697,-0.00000638,-0.00007393,0.00000058,0
 .00011055,-0.00013604,-0.00020596,-0.00004781,0.00013858,0.00001401,-0
 .00004267,-0.00015716,0.00012707,0.00008649,-0.00036110,-0.00001271,0.
 00033881,-0.00026844,-0.00013581,-0.00018626,0.00001256,-0.00021973,0.
 00008070,-0.00001034,0.00011052,0.00002859,0.00006581,-0.00000063,-0.0
 0004089,0.00000006,-0.00002970,0.00003204,0.00002461,0.00003216,0.0000
 0394,0.00005688,0.00002047,0.00004562,-0.00009927,-0.00017454,-0.00002
 814,-0.00002577,0.00002201,0.00000047,-0.00002549,-0.00002492,0.000027
 03,0.00001016,-0.00003102,-0.24299703,0.34115442,0.00008226,0.00008843
 ,-0.00019908,-0.00019031,0.00003427,-0.00003455,0.00003815,-0.00003010
 ,0.00003622,-0.00009875,0.00007909,-0.00014832,0.00026649,-0.00016104,
 0.00023247,0.00007622,0.00005672,0.00001362,-0.00000961,-0.00002182,-0
 .00001635,0.00005417,0.00004405,0.00001205,-0.00010293,-0.00007707,-0.
 00020268,0.00001536,0.00006496,-0.00007509,-0.00001132,-0.00000229,0.0
 0001185,0.00299339,-0.00178347,-0.00120860,0.00007395,0.00001863,0.000
 30106,-0.00000621,-0.00000704,0.00005338,-0.00006009,0.00003408,-0.000
 13416,-0.00003656,-0.00002858,-0.00003350,-0.00000201,0.00001158,-0.00
 002667,-0.00000172,-0.00000336,-0.00001145,-0.00030983,-0.00054606,0.0
 0038313,-0.00343327,0.00616899,-0.00402482,-0.02520461,0.03416471,0.00
 102605,0.00068045,-0.00201675,0.00256262,-0.00204059,0.00148748,-0.000
 84736,-0.00164413,-0.00074257,-0.00580596,0.06135157,-0.09895895,-0.05
 715834,0.00027163,-0.00053958,-0.00033269,-0.00003909,-0.00034962,-0.0
 0000866,-0.00094995,0.00243050,-0.00096077,0.00214377,0.00158099,-0.00
 052360,0.00005752,-0.00016726,-0.00004020,-0.00121317,-0.00324366,0.00
 260499,-0.00016754,0.00028102,-0.00004100,0.00083607,0.00035313,-0.001
 31807,-0.00015176,-0.00007664,0.00019230,-0.00015156,0.00001678,-0.000
 04942,-0.00006414,0.00005925,-0.00000015,-0.00008585,-0.00000388,-0.00
 001769,0.00024444,-0.00027148,0.00030562,0.00000859,-0.00000375,-0.000
 00806,-0.00000246,0.00000090,0.00000345,-0.00001332,-0.00000362,-0.000
 00203,-0.00003339,0.00000194,0.00000106,-0.00001166,-0.00000649,-0.000
 01086,-0.00034308,0.00007092,0.00039874,-0.00053050,0.00008572,0.00060
 849,0.00005290,-0.00004619,0.00006304,0.00001184,0.00000863,0.00000007
 ,-0.00000199,0.00000275,-0.00000506,0.00000867,0.00000168,0.00000563,-
 0.00000228,0.00002068,-0.00001847,0.00000773,0.00000879,-0.00000079,-0
 .00000006,-0.00000501,-0.00000690,0.00024576,-0.00003041,0.00001174,0.
 00012736,-0.00003510,0.00013884,0.00004548,0.00000019,0.00008974,-0.00
 023280,0.00005973,0.00053221,0.00002440,-0.00003900,0.00003433,0.00007
 754,0.00004120,0.00005871,0.00021894,0.00026126,0.00014663,-0.00058221
 ,0.00023720,0.00055211,0.00001180,-0.00001942,-0.00003145,0.00009105,0
 .00000511,0.00010152,-0.00004328,-0.00001880,-0.00006497,0.00000010,0.
 00003755,-0.00001275,0.00001481,-0.00002471,-0.00002448,0.00003532,0.0
 0010086,0.00001696,0.00020490,-0.00019730,-0.00008957,0.00004287,-0.00
 001355,0.00003419,0.00000985,0.00002745,-0.00004081,0.00001672,-0.0000
 1584,-0.00003855,-0.03267005,0.06154321,0.06304113\\-0.00000004,0.0000
 0127,0.00000202,0.00000194,-0.00000128,0.00000126,0.00000046,0.0000008
 6,-0.00000070,-0.00000552,-0.00000466,0.00000154,0.00000226,-0.0000008
 7,-0.00000358,0.00000207,-0.00000734,0.00000057,0.00000071,-0.00000455
 ,0.00000358,0.00000311,-0.00000789,-0.00000033,-0.00000740,0.00001253,
 -0.00000172,-0.00000884,-0.00000168,-0.00000996,-0.00000094,-0.0000017
 6,0.00000015,0.00000005,-0.00000285,-0.00000295,0.00000085,-0.00001052
 ,-0.00000311,0.00000695,0.00000527,-0.00000530,-0.00000509,0.00000143,
 0.00000722,-0.00000539,-0.00000547,-0.00000197,0.00000328,-0.00000010,
 0.00000647,0.00000153,-0.00000949,0.00000055,-0.00000195,0.00001297,-0
 .00000072,-0.00000020,-0.00001022,0.00000650,0.00000684,-0.00000471,0.
 00000064,0.00000134,0.00000077,-0.00000198,0.00000552,0.00000662,0.000
 00824,-0.00000378,0.00001283,-0.00000674,0.00000177,0.00000304,-0.0000
 0661,0.00000223,0.00000230,0.00000055,-0.00000027,-0.00000265,0.000001
 35,0.00000357,0.00000515,0.00000814,-0.00000226,0.00000187,-0.00001275
 ,-0.00000294,0.00000059,-0.00000432,-0.00000370,0.00001021,0.00001773,
 0.00000157,-0.00001102,0.00000390,0.00000364,-0.00000788,-0.00000435,-
 0.00000463,0.00001079,-0.00000636,0.00000425,0.00000615,-0.00000430,-0
 .00000139,-0.00000173,-0.00000188,-0.00000039,-0.00000398,-0.00000061,
 -0.00000148,-0.00000009,-0.00000120,0.00000132,-0.00000020,0.00000184,
 -0.00000079,-0.00000340,0.00000008,0.00000206,-0.00000453,-0.00000071,
 -0.00000014,-0.00000371,-0.00000090,0.00000013,-0.00000424,-0.00000321
 ,-0.00000510,0.00000351,0.00000220,0.00000290,-0.00000137,-0.00000014,
 0.00000148,-0.00000440,0.00000383,0.00000329,-0.00000245,0.00000074,0.
 00000170,-0.00000073,0.00000290,-0.00000021,-0.00000384,0.00000115,0.0
 0000370,0.00000300,0.00000186,0.00000311,-0.00000289,0.00000164,0.0000
 0501,-0.00000140,0.00000215,-0.00000087,-0.00000150,-0.00000229,0.0000
 0178,0.00000197,0.00000098,0.00000126,0.00000396,0.00000060,0.00000080
 ,0.00000137,-0.00000069,0.00000313,0.00000134,0.00000003,0.00000086,0.
 00000133,0.00000088,-0.00000015,0.00000043,-0.00000074,0.00000152,0.00
 000228,0.00000526,-0.00000040,0.00000550,-0.00000056,0.00000105,0.0000
 0256,0.00000249,-0.00000087,0.00000267,-0.00000006,-0.00000330,-0.0000
 0078,-0.00000200,-0.00000270,-0.00000042,-0.00000269,-0.00000525,0.000
 00043,-0.00000366,-0.00000560,-0.00000048,0.00000212,-0.00000368,0.000
 00532,0.00000018,-0.00000497,0.00000372,-0.00000003,-0.00000169,0.0000
 0273,-0.00000252,0.00000287,0.00000030,0.00000031\\\@


 THERE IS NO SUBJECT, HOWEVER COMPLEX,
 WHICH, IF STUDIED WITH PATIENCE AND INTELLIGIENCE
 WILL NOT BECOME
 MORE COMPLEX
                        QUOTED BY D. GORDON ROHMAN
 Job cpu time:       1 days  7 hours 16 minutes 10.6 seconds.
 File lengths (MBytes):  RWF=   3451 Int=      0 D2E=      0 Chk=     48 Scr=      1
 Normal termination of Gaussian 09 at Thu Mar 26 03:53:17 2015.
