
                                 *****************
                                 * O   R   C   A *
                                 *****************

           --- An Ab Initio, DFT and Semiempirical electronic structure package ---

                  #######################################################
                  #                        -***-                        #
                  #  Department of molecular theory and spectroscopy    #
                  #              Directorship: Frank Neese              #
                  # Max Planck Institute for Chemical Energy Conversion #
                  #                  D-45470 Muelheim/Ruhr              #
                  #                       Germany                       #
                  #                                                     #
                  #                  All rights reserved                #
                  #                        -***-                        #
                  #######################################################


                         Program Version 3.0.3 - RELEASE   -


 With contributions from (in alphabetic order):
   Ute Becker             : Parallelization
   Dmytro Bykov           : SCF Hessian
   Dmitry Ganyushin       : Spin-Orbit,Spin-Spin,Magnetic field MRCI
   Andreas Hansen         : Spin unrestricted coupled pair/coupled cluster methods
   Dimitrios Liakos       : Extrapolation schemes; parallel MDCI
   Robert Izsak           : Overlap fitted RIJCOSX, COSX-SCS-MP3
   Christian Kollmar      : KDIIS, OOCD, Brueckner-CCSD(T), CCSD density
   Simone Kossmann        : Meta GGA functionals, TD-DFT gradient, OOMP2, MP2 Hessian
   Taras Petrenko         : DFT Hessian,TD-DFT gradient, ASA and ECA modules, normal mode analysis, Resonance Raman, ABS, FL, XAS/XES, NRVS
   Christoph Reimann      : Effective Core Potentials
   Michael Roemelt        : Restricted open shell CIS
   Christoph Riplinger    : Improved optimizer, TS searches, QM/MM, DLPNO-CCSD
   Barbara Sandhoefer     : DKH picture change effects
   Igor Schapiro          : Molecular dynamics
   Kantharuban Sivalingam : CASSCF convergence, NEVPT2
   Boris Wezisla          : Elementary symmetry handling
   Frank Wennmohs         : Technical directorship


 We gratefully acknowledge several colleagues who have allowed us to
 interface, adapt or use parts of their codes:
   Stefan Grimme, W. Hujo, H. Kruse, T. Risthaus : VdW corrections, initial TS optimization,
                                                   DFT functionals, gCP
   Ed Valeev                                     : LibInt (2-el integral package), F12 methods
   Garnet Chan, S. Sharma, R. Olivares           : DMRG
   Ulf Ekstrom                                   : XCFun DFT Library
   Mihaly Kallay                                 : mrcc  (arbitrary order and MRCC methods)
   Andreas Klamt, Michael Diedenhofen            : otool_cosmo (COSMO solvation model)
   Frank Weinhold                                : gennbo (NPA and NBO analysis)
   Christopher J. Cramer and Donald G. Truhlar   : smd solvation model


 Your calculation uses the libint2 library for the computation of 2-el integrals
 For citations please refer to: http://libint.valeyev.net

 This ORCA versions uses:
   CBLAS   interface :  Fast vector & matrix operations
   LAPACKE interface :  Fast linear algebra routines
   SCALAPACK package :  Parallel linear algebra routines


Your calculation utilizes the basis: Ahlrichs-VDZ
Cite in your paper:
H - Kr: A. Schaefer, H. Horn and R. Ahlrichs, J. Chem. Phys. 97, 2571 (1992).

Your calculation utilizes the basis: Ahlrichs SVPalls1+f
Cite in your paper:
Rb - Xe: A. Schaefer, C. Huber and R. Ahlrichs, J. Chem. Phys. 100, 5829 (1994).

Your calculation utilizes the atom-pairwise dispersion correction
with the Becke-Johnson damping scheme (D3BJ)
Cite in your paper:
S.Grimme, S.Ehrlich, L.Goerigk, J Comput Chem, (2011), 32, 1456–1465 
S.Grimme, J.Antony, S.Ehrlich and H.Krieg, J.Chem.Phys., 132, (2010), 154104 
   

================================================================================
                                        WARNINGS
                       Please study these warnings very carefully!
================================================================================
Now building the actual basis set

WARNING: Geometry Optimization
  ===> : Switching off AutoStart
         For restart on a previous wavefunction, please use MOREAD


INFO   : the flag for use of LIBINT has been found!

================================================================================
                                       INPUT FILE
================================================================================
NAME = c20_fullerene.inp
|  1> %MaxCore 12000
|  2> %pal nprocs 16 
|  3>     end
|  4> #Optimization of C20 
|  5> ! PBE0 D3 RIJCOSX def2-svp def2-svp/J opt
|  6> 
|  7> *xyz 0 1
|  8>   C   -0.38290403443123      1.57667174304640     -1.17829960159064
|  9>   C   -1.57329090752674      0.90394730378626     -0.72016678832375
| 10>   C   -1.57329090651487      0.90394730204266      0.72016679310839
| 11>   C   -0.38290402502253      1.57667173313197      1.17829959869212
| 12>   C   0.37485520875547      2.05634974558411      0.00000000082459
| 13>   C   1.58901676884095      1.35968208286067     -0.00000000350760
| 14>   C   1.55489132095235      0.46301076556854      1.17732448074458
| 15>   C   0.38073373196774      0.66268259762833      1.95077490849652
| 16>   C   -0.38073372642997     -0.66268259661363      1.95077488101347
| 17>   C   -1.55489131765902     -0.46301076122699      1.17732446698911
| 18>   C   -1.58901676684655     -1.35968207915876     -0.00000000542138
| 19>   C   -0.37485521706874     -2.05634976379417      0.00000000274087
| 20>   C   0.38290403335707     -1.57667174295455      1.17829959523637
| 21>   C   1.57329091199992     -0.90394729435766      0.72016679312948
| 22>   C   1.57329090465602     -0.90394729255608     -0.72016678009289
| 23>   C   1.55489130780781      0.46301076246853     -1.17732447688685
| 24>   C   0.38073371998840      0.66268259726892     -1.95077490180769
| 25>   C   -0.38073372559812     -0.66268260349195     -1.95077489716769
| 26>   C   -1.55489130931217     -0.46301075927559     -1.17732447786895
| 27>   C   0.38290402808421     -1.57667173995701     -1.17829958830806
| 28> *
| 29> 
| 30>                          ****END OF INPUT****
================================================================================

                       *****************************
                       * Geometry Optimization Run *
                       *****************************

Geometry optimization settings:
Update method            Update   .... BFGS
Choice of coordinates    CoordSys .... Redundant Internals
Initial Hessian          InHess   .... Almoef's Model

Convergence Tolerances:
Energy Change            TolE     ....  5.0000e-06 Eh
Max. Gradient            TolMAXG  ....  3.0000e-04 Eh/bohr
RMS Gradient             TolRMSG  ....  1.0000e-04 Eh/bohr
Max. Displacement        TolMAXD  ....  4.0000e-03 bohr
RMS Displacement         TolRMSD  ....  2.0000e-03 bohr

------------------------------------------------------------------------------
                        ORCA OPTIMIZATION COORDINATE SETUP
------------------------------------------------------------------------------

The optimization will be done in new redundant internal coordinates
Making redundant internal coordinates   ...  (new redundants) done
Evaluating the initial hessian          ...  (Almloef) done
Evaluating the coordinates              ...  done
Calculating the B-matrix                .... done
Calculating the G-matrix                .... done
Diagonalizing the G-matrix              .... done
The first mode is                       ....  156
The number of degrees of freedom        ....   54

    -----------------------------------------------------------------
                    Redundant Internal Coordinates


    -----------------------------------------------------------------
         Definition                    Initial Value    Approx d2E/dq
    -----------------------------------------------------------------
      1. B(C   1,C   0)                  1.4420         0.516084   
      2. B(C   2,C   1)                  1.4403         0.519319   
      3. B(C   3,C   2)                  1.4420         0.516084   
      4. B(C   4,C   0)                  1.4808         0.447632   
      5. B(C   4,C   3)                  1.4808         0.447632   
      6. B(C   5,C   4)                  1.3998         0.602628   
      7. B(C   6,C   5)                  1.4803         0.448411   
      8. B(C   7,C   6)                  1.4201         0.559351   
      9. B(C   7,C   3)                  1.4196         0.560440   
     10. B(C   8,C   7)                  1.5285         0.375588   
     11. B(C   9,C   8)                  1.4201         0.559351   
     12. B(C   9,C   2)                  1.4415         0.517110   
     13. B(C  10,C   9)                  1.4803         0.448411   
     14. B(C  11,C  10)                  1.3998         0.602628   
     15. B(C  12,C   8)                  1.4196         0.560440   
     16. B(C  12,C  11)                  1.4808         0.447632   
     17. B(C  13,C  12)                  1.4420         0.516084   
     18. B(C  13,C   6)                  1.4415         0.517110   
     19. B(C  14,C  13)                  1.4403         0.519319   
     20. B(C  15,C  14)                  1.4415         0.517110   
     21. B(C  15,C   5)                  1.4803         0.448411   
     22. B(C  16,C  15)                  1.4201         0.559351   
     23. B(C  16,C   0)                  1.4196         0.560440   
     24. B(C  17,C  16)                  1.5285         0.375588   
     25. B(C  18,C  17)                  1.4201         0.559351   
     26. B(C  18,C  10)                  1.4803         0.448411   
     27. B(C  18,C   1)                  1.4415         0.517110   
     28. B(C  19,C  17)                  1.4196         0.560440   
     29. B(C  19,C  14)                  1.4420         0.516084   
     30. B(C  19,C  11)                  1.4808         0.447632   
     31. A(C   1,C   0,C   4)          108.7082         0.396503   
     32. A(C   1,C   0,C  16)          108.4558         0.412550   
     33. A(C   4,C   0,C  16)          111.4870         0.402296   
     34. A(C   2,C   1,C  18)          108.4901         0.407161   
     35. A(C   0,C   1,C   2)          108.5238         0.407018   
     36. A(C   0,C   1,C  18)          109.3353         0.406711   
     37. A(C   1,C   2,C   9)          108.4901         0.407161   
     38. A(C   3,C   2,C   9)          109.3353         0.406711   
     39. A(C   1,C   2,C   3)          108.5238         0.407018   
     40. A(C   2,C   3,C   4)          108.7082         0.396503   
     41. A(C   4,C   3,C   7)          111.4870         0.402296   
     42. A(C   2,C   3,C   7)          108.4558         0.412550   
     43. A(C   0,C   4,C   3)          105.4493         0.386757   
     44. A(C   3,C   4,C   5)          106.4179         0.407485   
     45. A(C   0,C   4,C   5)          106.4179         0.407485   
     46. A(C   4,C   5,C   6)          106.3478         0.407610   
     47. A(C   6,C   5,C  15)          105.3729         0.386992   
     48. A(C   4,C   5,C  15)          106.3478         0.407610   
     49. A(C   7,C   6,C  13)          108.4582         0.412553   
     50. A(C   5,C   6,C  13)          108.7773         0.396762   
     51. A(C   5,C   6,C   7)          111.5344         0.402281   
     52. A(C   3,C   7,C   8)          106.8749         0.390096   
     53. A(C   6,C   7,C   8)          106.8563         0.389964   
     54. A(C   3,C   7,C   6)          103.8227         0.418500   
     55. A(C   7,C   8,C  12)          106.8749         0.390096   
     56. A(C   9,C   8,C  12)          103.8227         0.418500   
     57. A(C   7,C   8,C   9)          106.8563         0.389964   
     58. A(C   8,C   9,C  10)          111.5344         0.402281   
     59. A(C   2,C   9,C  10)          108.7773         0.396762   
     60. A(C   2,C   9,C   8)          108.4582         0.412553   
     61. A(C  11,C  10,C  18)          106.3478         0.407610   
     62. A(C   9,C  10,C  18)          105.3729         0.386992   
     63. A(C   9,C  10,C  11)          106.3478         0.407610   
     64. A(C  10,C  11,C  19)          106.4179         0.407485   
     65. A(C  12,C  11,C  19)          105.4493         0.386757   
     66. A(C  10,C  11,C  12)          106.4179         0.407485   
     67. A(C  11,C  12,C  13)          108.7082         0.396503   
     68. A(C   8,C  12,C  13)          108.4558         0.412550   
     69. A(C   8,C  12,C  11)          111.4870         0.402296   
     70. A(C   6,C  13,C  14)          108.4901         0.407161   
     71. A(C   6,C  13,C  12)          109.3353         0.406711   
     72. A(C  12,C  13,C  14)          108.5238         0.407018   
     73. A(C  15,C  14,C  19)          109.3353         0.406711   
     74. A(C  13,C  14,C  19)          108.5238         0.407018   
     75. A(C  13,C  14,C  15)          108.4901         0.407161   
     76. A(C  14,C  15,C  16)          108.4582         0.412553   
     77. A(C   5,C  15,C  16)          111.5344         0.402281   
     78. A(C   5,C  15,C  14)          108.7773         0.396762   
     79. A(C  15,C  16,C  17)          106.8563         0.389964   
     80. A(C   0,C  16,C  17)          106.8749         0.390096   
     81. A(C   0,C  16,C  15)          103.8227         0.418500   
     82. A(C  18,C  17,C  19)          103.8227         0.418500   
     83. A(C  16,C  17,C  19)          106.8749         0.390096   
     84. A(C  16,C  17,C  18)          106.8563         0.389964   
     85. A(C  10,C  18,C  17)          111.5344         0.402281   
     86. A(C   1,C  18,C  17)          108.4582         0.412553   
     87. A(C   1,C  18,C  10)          108.7773         0.396762   
     88. A(C  14,C  19,C  17)          108.4558         0.412550   
     89. A(C  11,C  19,C  17)          111.4870         0.402296   
     90. A(C  11,C  19,C  14)          108.7082         0.396503   
     91. D(C   2,C   1,C   0,C   4)     -1.8300         0.018159   
     92. D(C  18,C   1,C   0,C   4)   -119.9961         0.018159   
     93. D(C   2,C   1,C   0,C  16)    119.5498         0.018159   
     94. D(C  18,C   1,C   0,C  16)      1.3837         0.018159   
     95. D(C   9,C   2,C   1,C   0)   -118.7010         0.018391   
     96. D(C   3,C   2,C   1,C  18)    118.7010         0.018391   
     97. D(C   3,C   2,C   1,C   0)     -0.0000         0.018391   
     98. D(C   9,C   2,C   1,C  18)     -0.0000         0.018391   
     99. D(C   7,C   3,C   2,C   9)     -1.3837         0.018159   
    100. D(C   4,C   3,C   2,C   9)    119.9961         0.018159   
    101. D(C   4,C   3,C   2,C   1)      1.8300         0.018159   
    102. D(C   7,C   3,C   2,C   1)   -119.5498         0.018159   
    103. D(C   3,C   4,C   0,C  16)   -116.6395         0.013662   
    104. D(C   5,C   4,C   0,C  16)     -3.8632         0.013662   
    105. D(C   3,C   4,C   0,C   1)      2.8657         0.013662   
    106. D(C   5,C   4,C   0,C   1)    115.6420         0.013662   
    107. D(C   5,C   4,C   3,C   7)      3.8632         0.013662   
    108. D(C   5,C   4,C   3,C   2)   -115.6420         0.013662   
    109. D(C   0,C   4,C   3,C   7)    116.6395         0.013662   
    110. D(C   0,C   4,C   3,C   2)     -2.8657         0.013662   
    111. D(C  15,C   5,C   4,C   3)    112.0332         0.025047   
    112. D(C   6,C   5,C   4,C   3)      0.0737         0.025047   
    113. D(C  15,C   5,C   4,C   0)     -0.0737         0.025047   
    114. D(C   6,C   5,C   4,C   0)   -112.0332         0.025047   
    115. D(C  13,C   6,C   5,C  15)      2.9557         0.013708   
    116. D(C   7,C   6,C   5,C   4)     -3.9912         0.013708   
    117. D(C   7,C   6,C   5,C  15)   -116.6260         0.013708   
    118. D(C  13,C   6,C   5,C   4)    115.5906         0.013708   
    119. D(C   8,C   7,C   3,C   2)      0.8170         0.021516   
    120. D(C   6,C   7,C   3,C   4)     -6.0887         0.021516   
    121. D(C   6,C   7,C   3,C   2)    113.5660         0.021516   
    122. D(C   8,C   7,C   6,C  13)     -0.8676         0.021430   
    123. D(C   8,C   7,C   6,C   5)    118.9028         0.021430   
    124. D(C   3,C   7,C   6,C  13)   -113.6300         0.021430   
    125. D(C   3,C   7,C   6,C   5)      6.1404         0.021430   
    126. D(C   8,C   7,C   3,C   4)   -118.8376         0.021516   
    127. D(C  12,C   8,C   7,C   6)      0.0313         0.009781   
    128. D(C  12,C   8,C   7,C   3)    110.6893         0.009781   
    129. D(C   9,C   8,C   7,C   6)   -110.6267         0.009781   
    130. D(C   9,C   8,C   7,C   3)      0.0313         0.009781   
    131. D(C  10,C   9,C   8,C  12)      6.1404         0.021430   
    132. D(C   2,C   9,C   8,C  12)   -113.6300         0.021430   
    133. D(C   2,C   9,C   8,C   7)     -0.8676         0.021430   
    134. D(C  10,C   9,C   2,C   3)   -120.0759         0.018232   
    135. D(C  10,C   9,C   2,C   1)     -1.8887         0.018232   
    136. D(C  10,C   9,C   8,C   7)    118.9028         0.021430   
    137. D(C   8,C   9,C   2,C   3)      1.4042         0.018232   
    138. D(C   8,C   9,C   2,C   1)    119.5913         0.018232   
    139. D(C  18,C  10,C   9,C   8)   -116.6260         0.013708   
    140. D(C  18,C  10,C   9,C   2)      2.9557         0.013708   
    141. D(C  11,C  10,C   9,C   8)     -3.9912         0.013708   
    142. D(C  11,C  10,C   9,C   2)    115.5906         0.013708   
    143. D(C  19,C  11,C  10,C  18)     -0.0737         0.025047   
    144. D(C  19,C  11,C  10,C   9)   -112.0332         0.025047   
    145. D(C  12,C  11,C  10,C  18)    112.0332         0.025047   
    146. D(C  12,C  11,C  10,C   9)      0.0737         0.025047   
    147. D(C   8,C  12,C  11,C  19)    116.6395         0.013662   
    148. D(C   8,C  12,C  11,C  10)      3.8632         0.013662   
    149. D(C  13,C  12,C   8,C   9)    113.5660         0.021516   
    150. D(C  11,C  12,C   8,C   9)     -6.0887         0.021516   
    151. D(C  11,C  12,C   8,C   7)   -118.8376         0.021516   
    152. D(C  13,C  12,C  11,C  10)   -115.6420         0.013662   
    153. D(C  13,C  12,C   8,C   7)      0.8170         0.021516   
    154. D(C  13,C  12,C  11,C  19)     -2.8657         0.013662   
    155. D(C  14,C  13,C  12,C  11)      1.8300         0.018159   
    156. D(C  14,C  13,C  12,C   8)   -119.5498         0.018159   
    157. D(C   6,C  13,C  12,C  11)    119.9961         0.018159   
    158. D(C   6,C  13,C  12,C   8)     -1.3837         0.018159   
    159. D(C  14,C  13,C   6,C   7)    119.5913         0.018232   
    160. D(C  14,C  13,C   6,C   5)     -1.8887         0.018232   
    161. D(C  12,C  13,C   6,C   7)      1.4042         0.018232   
    162. D(C  12,C  13,C   6,C   5)   -120.0759         0.018232   
    163. D(C  19,C  14,C  13,C  12)     -0.0000         0.018391   
    164. D(C  19,C  14,C  13,C   6)   -118.7010         0.018391   
    165. D(C  15,C  14,C  13,C  12)    118.7010         0.018391   
    166. D(C  15,C  14,C  13,C   6)     -0.0000         0.018391   
    167. D(C  16,C  15,C  14,C  19)     -1.4042         0.018232   
    168. D(C  16,C  15,C  14,C  13)   -119.5913         0.018232   
    169. D(C   5,C  15,C  14,C  19)    120.0759         0.018232   
    170. D(C   5,C  15,C  14,C  13)      1.8887         0.018232   
    171. D(C  16,C  15,C   5,C   6)    116.6260         0.013708   
    172. D(C  16,C  15,C   5,C   4)      3.9912         0.013708   
    173. D(C  14,C  15,C   5,C   6)     -2.9557         0.013708   
    174. D(C  14,C  15,C   5,C   4)   -115.5906         0.013708   
    175. D(C  17,C  16,C  15,C  14)      0.8676         0.021430   
    176. D(C  17,C  16,C  15,C   5)   -118.9028         0.021430   
    177. D(C   0,C  16,C  15,C  14)    113.6300         0.021430   
    178. D(C   0,C  16,C  15,C   5)     -6.1404         0.021430   
    179. D(C  17,C  16,C   0,C   4)    118.8376         0.021516   
    180. D(C  17,C  16,C   0,C   1)     -0.8170         0.021516   
    181. D(C  15,C  16,C   0,C   4)      6.0887         0.021516   
    182. D(C  15,C  16,C   0,C   1)   -113.5660         0.021516   
    183. D(C  19,C  17,C  16,C  15)     -0.0313         0.009781   
    184. D(C  19,C  17,C  16,C   0)   -110.6893         0.009781   
    185. D(C  18,C  17,C  16,C  15)    110.6267         0.009781   
    186. D(C  18,C  17,C  16,C   0)     -0.0313         0.009781   
    187. D(C  10,C  18,C  17,C  19)     -6.1404         0.021430   
    188. D(C   1,C  18,C  17,C  19)    113.6300         0.021430   
    189. D(C   1,C  18,C  17,C  16)      0.8676         0.021430   
    190. D(C  17,C  18,C  10,C  11)      3.9912         0.013708   
    191. D(C  17,C  18,C  10,C   9)    116.6260         0.013708   
    192. D(C   1,C  18,C  10,C  11)   -115.5906         0.013708   
    193. D(C   1,C  18,C  10,C   9)     -2.9557         0.013708   
    194. D(C  17,C  18,C   1,C   2)   -119.5913         0.018232   
    195. D(C  17,C  18,C   1,C   0)     -1.4042         0.018232   
    196. D(C  10,C  18,C  17,C  16)   -118.9028         0.021430   
    197. D(C  10,C  18,C   1,C   2)      1.8887         0.018232   
    198. D(C  10,C  18,C   1,C   0)    120.0759         0.018232   
    199. D(C  14,C  19,C  17,C  18)   -113.5660         0.021516   
    200. D(C  11,C  19,C  17,C  18)      6.0887         0.021516   
    201. D(C  11,C  19,C  17,C  16)    118.8376         0.021516   
    202. D(C  17,C  19,C  14,C  15)      1.3837         0.018159   
    203. D(C  17,C  19,C  14,C  13)    119.5498         0.018159   
    204. D(C  11,C  19,C  14,C  15)   -119.9961         0.018159   
    205. D(C  11,C  19,C  14,C  13)     -1.8300         0.018159   
    206. D(C  17,C  19,C  11,C  12)   -116.6395         0.013662   
    207. D(C  17,C  19,C  11,C  10)     -3.8632         0.013662   
    208. D(C  14,C  19,C  17,C  16)     -0.8170         0.021516   
    209. D(C  14,C  19,C  11,C  12)      2.8657         0.013662   
    210. D(C  14,C  19,C  11,C  10)    115.6420         0.013662   
    -----------------------------------------------------------------

Number of atoms                         .... 20
Number of degrees of freedom            .... 210

         *************************************************************
         *                GEOMETRY OPTIMIZATION CYCLE   1            *
         *************************************************************
---------------------------------
CARTESIAN COORDINATES (ANGSTROEM)
---------------------------------
  C     -0.382904    1.576672   -1.178300
  C     -1.573291    0.903947   -0.720167
  C     -1.573291    0.903947    0.720167
  C     -0.382904    1.576672    1.178300
  C      0.374855    2.056350    0.000000
  C      1.589017    1.359682   -0.000000
  C      1.554891    0.463011    1.177324
  C      0.380734    0.662683    1.950775
  C     -0.380734   -0.662683    1.950775
  C     -1.554891   -0.463011    1.177324
  C     -1.589017   -1.359682   -0.000000
  C     -0.374855   -2.056350    0.000000
  C      0.382904   -1.576672    1.178300
  C      1.573291   -0.903947    0.720167
  C      1.573291   -0.903947   -0.720167
  C      1.554891    0.463011   -1.177324
  C      0.380734    0.662683   -1.950775
  C     -0.380734   -0.662683   -1.950775
  C     -1.554891   -0.463011   -1.177324
  C      0.382904   -1.576672   -1.178300

----------------------------
CARTESIAN COORDINATES (A.U.)
----------------------------
  NO LB      ZA    FRAG    MASS        X           Y           Z
   0 C     6.0000    0    12.011         -0.723583760648578          2.979477797449954         -2.226663550714831
   1 C     6.0000    0    12.011         -2.973088944213964          1.708212843652548         -1.360918000677525
   2 C     6.0000    0    12.011         -2.973088942301807          1.708212840357622          1.360918009719184
   3 C     6.0000    0    12.011         -0.723583742868712          2.979477778714397          2.226663545237423
   4 C     6.0000    0    12.011          0.708373684421718          3.885937854712610          0.000000001558249
   5 C     6.0000    0    12.011          3.002806515317848          2.569426765806289         -0.000000006628403
   6 C     6.0000    0    12.011          2.938318764610993          0.874963543981756          2.224820839368300
   7 C     6.0000    0    12.011          0.719482483364807          1.252288623233077          3.686430325983712
   8 C     6.0000    0    12.011         -0.719482472899939         -1.252288621315572          3.686430274048274
   9 C     6.0000    0    12.011         -2.938318758387501         -0.874963535777415          2.224820813374229
  10 C     6.0000    0    12.011         -3.002806511548978         -2.569426758810693         -0.000000010244923
  11 C     6.0000    0    12.011         -0.708373700131522         -3.885937889124636          0.000000005179494
  12 C     6.0000    0    12.011          0.723583758618710         -2.979477797276383          2.226663538707001
  13 C     6.0000    0    12.011          2.973088952667049         -1.708212825835076          1.360918009759038
  14 C     6.0000    0    12.011          2.973088938789089         -1.708212822430584         -1.360917985123453
  15 C     6.0000    0    12.011          2.938318739771411          0.874963538123586         -2.224820832078247
  16 C     6.0000    0    12.011          0.719482460727136          1.252288622553890         -3.686430313343656
  17 C     6.0000    0    12.011         -0.719482471327970         -1.252288634313712         -3.686430304575326
  18 C     6.0000    0    12.011         -2.938318742614240         -0.874963532089804         -2.224820833934147
  19 C     6.0000    0    12.011          0.723583748654449         -2.979477791611854         -2.226663525614393

--------------------------------
INTERNAL COORDINATES (ANGSTROEM)
--------------------------------
 C      0   0   0   0.000000     0.000     0.000
 C      1   0   0   1.442035     0.000     0.000
 C      2   1   0   1.440334   108.524     0.000
 C      3   2   1   1.442035   108.524     0.000
 C      4   3   2   1.480770   108.708     1.830
 C      5   4   3   1.399834   106.418   244.358
 C      6   5   4   1.480296   106.348     0.074
 C      4   3   2   1.419590   108.456   240.450
 C      8   4   3   1.528537   106.875     0.817
 C      9   8   4   1.420120   106.856     0.031
 C     10   9   8   1.480296   111.534   118.903
 C     11  10   9   1.399834   106.348   356.009
 C      9   8   4   1.419590   106.875   110.689
 C      7   6   5   1.441494   108.777   115.591
 C     14   7   6   1.440334   108.490   358.111
 C     15  14   7   1.441494   108.490     0.000
 C      1   2   3   1.419590   108.456   119.550
 C     17   1   2   1.528537   106.875   359.183
 C     18  17   1   1.420120   106.856   359.969
 C     18  17   1   1.419590   106.875   249.311

---------------------------
INTERNAL COORDINATES (A.U.)
---------------------------
 C      0   0   0   0.000000     0.000     0.000
 C      1   0   0   2.725051     0.000     0.000
 C      2   1   0   2.721836   108.524     0.000
 C      3   2   1   2.725051   108.524     0.000
 C      4   3   2   2.798250   108.708     1.830
 C      5   4   3   2.645302   106.418   244.358
 C      6   5   4   2.797354   106.348     0.074
 C      4   3   2   2.682637   108.456   240.450
 C      8   4   3   2.888516   106.875     0.817
 C      9   8   4   2.683638   106.856     0.031
 C     10   9   8   2.797354   111.534   118.903
 C     11  10   9   2.645302   106.348   356.009
 C      9   8   4   2.682637   106.875   110.689
 C      7   6   5   2.724030   108.777   115.591
 C     14   7   6   2.721836   108.490   358.111
 C     15  14   7   2.724030   108.490     0.000
 C      1   2   3   2.682637   108.456   119.550
 C     17   1   2   2.888516   106.875   359.183
 C     18  17   1   2.683638   106.856   359.969
 C     18  17   1   2.682637   106.875   249.311

---------------------
BASIS SET INFORMATION
---------------------
There are 1 groups of distinct atoms

 Group   1 Type C   : 7s4p1d contracted to 3s2p1d pattern {511/31/1}

Atom   0C    basis set group =>   1
Atom   1C    basis set group =>   1
Atom   2C    basis set group =>   1
Atom   3C    basis set group =>   1
Atom   4C    basis set group =>   1
Atom   5C    basis set group =>   1
Atom   6C    basis set group =>   1
Atom   7C    basis set group =>   1
Atom   8C    basis set group =>   1
Atom   9C    basis set group =>   1
Atom  10C    basis set group =>   1
Atom  11C    basis set group =>   1
Atom  12C    basis set group =>   1
Atom  13C    basis set group =>   1
Atom  14C    basis set group =>   1
Atom  15C    basis set group =>   1
Atom  16C    basis set group =>   1
Atom  17C    basis set group =>   1
Atom  18C    basis set group =>   1
Atom  19C    basis set group =>   1
-------------------------------
AUXILIARY BASIS SET INFORMATION
-------------------------------
There are 1 groups of distinct atoms

 Group   1 Type C   : 12s5p4d2f1g contracted to 6s4p3d1f1g pattern {711111/2111/211/2/1}

Atom   0C    basis set group =>   1
Atom   1C    basis set group =>   1
Atom   2C    basis set group =>   1
Atom   3C    basis set group =>   1
Atom   4C    basis set group =>   1
Atom   5C    basis set group =>   1
Atom   6C    basis set group =>   1
Atom   7C    basis set group =>   1
Atom   8C    basis set group =>   1
Atom   9C    basis set group =>   1
Atom  10C    basis set group =>   1
Atom  11C    basis set group =>   1
Atom  12C    basis set group =>   1
Atom  13C    basis set group =>   1
Atom  14C    basis set group =>   1
Atom  15C    basis set group =>   1
Atom  16C    basis set group =>   1
Atom  17C    basis set group =>   1
Atom  18C    basis set group =>   1
Atom  19C    basis set group =>   1


           ************************************************************
           *        Program running with 16 parallel MPI-processes    *
           *              working on a common directory               *
           ************************************************************
------------------------------------------------------------------------------
                           ORCA GTO INTEGRAL CALCULATION
                           -- RI-GTO INTEGRALS CHOSEN --
------------------------------------------------------------------------------

                         BASIS SET STATISTICS AND STARTUP INFO

Gaussian basis set:
 # of primitive gaussian shells          ...  240
 # of primitive gaussian functions       ...  480
 # of contracted shells                  ...  120
 # of contracted basis functions         ...  280
 Highest angular momentum                ...    2
 Maximum contraction depth               ...    5
Auxiliary gaussian basis set:
 # of primitive gaussian shells          ...  480
 # of primitive gaussian functions       ... 1400
 # of contracted shells                  ...  300
 # of contracted aux-basis functions     ...  980
 Highest angular momentum                ...    4
 Maximum contraction depth               ...    7
Ratio of auxiliary to basis functions    ...  3.50
Integral package used                  ... LIBINT
 One Electron integrals                  ... done
 Ordering auxiliary basis shells         ... done
 Integral threshhold             Thresh  ...  2.500e-11
 Primitive cut-off               TCut    ...  2.500e-12
 Pre-screening matrix                    ... done
 Shell pair data                         ... 
 Ordering of the shell pairs             ... done (   0.001 sec) 7012 of 7260 pairs
 Determination of significant pairs      ... done (   0.000 sec)
 Creation of shell pair data             ... done (   0.002 sec)
 Storage of shell pair data              ... done (   0.003 sec)
 Shell pair data done in (   0.006 sec)
 Computing two index integrals           ... done
 Cholesky decomposition of the V-matrix  ... done


Timings:
 Total evaluation time                   ...   6.538 sec (  0.109 min)
 One electron matrix time                ...   0.072 sec (  0.001 min) =  1.1%
 Schwartz matrix evaluation time         ...   0.182 sec (  0.003 min) =  2.8%
 Two index repulsion integral time       ...   0.063 sec (  0.001 min) =  1.0%
 Cholesky decomposition of V             ...   6.186 sec (  0.103 min) = 94.6%
 Three index repulsion integral time     ...   0.000 sec (  0.000 min) =  0.0%

           ************************************************************
           *              Shut down parallel processing               *
           ************************************************************


           ************************************************************
           *        Program running with 16 parallel MPI-processes    *
           *              working on a common directory               *
           ************************************************************
-------------------------------------------------------------------------------
                                 ORCA SCF
-------------------------------------------------------------------------------

------------
SCF SETTINGS
------------
Hamiltonian:
 Density Functional     Method          .... DFT(GTOs)
 Exchange Functional    Exchange        .... PBE
   PBE kappa parameter  XKappa          ....  0.804000
 Correlation Functional Correlation     .... PBE
 LDA part of GGA corr.  LDAOpt          .... PW91-LDA
 Gradients option       PostSCFGGA      .... off
 Hybrid DFT is turned on
   Fraction HF Exchange ScalHFX         ....  0.250000
   Scaling of DF-GGA-X  ScalDFX         ....  0.750000
   Scaling of DF-GGA-C  ScalDFC         ....  1.000000
   Scaling of DF-LDA-C  ScalLDAC        ....  1.000000
   Perturbative correction              ....  0.000000
   NL short-range parameter             ....  6.900000
 RI-approximation to the Coulomb term is turned on
   Number of auxiliary basis functions  .... 980
   RIJ-COSX (HFX calculated with COS-X)).... on


General Settings:
 Integral files         IntName         .... c20_fullerene
 Hartree-Fock type      HFTyp           .... RHF
 Total Charge           Charge          ....    0
 Multiplicity           Mult            ....    1
 Number of Electrons    NEL             ....  120
 Basis Dimension        Dim             ....  280
 Nuclear Repulsion      ENuc            ....   1425.1132508932 Eh

Convergence Acceleration:
 DIIS                   CNVDIIS         .... on
   Start iteration      DIISMaxIt       ....    12
   Startup error        DIISStart       ....  0.200000
   # of expansion vecs  DIISMaxEq       ....     5
   Bias factor          DIISBfac        ....   1.050
   Max. coefficient     DIISMaxC        ....  10.000
 Newton-Raphson         CNVNR           .... off
 SOSCF                  CNVSOSCF        .... on
   Start iteration      SOSCFMaxIt      ....   150
   Startup grad/error   SOSCFStart      ....  0.003300
 Level Shifting         CNVShift        .... on
   Level shift para.    LevelShift      ....    0.2500
   Turn off err/grad.   ShiftErr        ....    0.0010
 Zerner damping         CNVZerner       .... off
 Static damping         CNVDamp         .... on
   Fraction old density DampFac         ....    0.7000
   Max. Damping (<1)    DampMax         ....    0.9800
   Min. Damping (>=0)   DampMin         ....    0.0000
   Turn off err/grad.   DampErr         ....    0.1000
 Fernandez-Rico         CNVRico         .... off

SCF Procedure:
 Maximum # iterations   MaxIter         ....   125
 SCF integral mode      SCFMode         .... Direct
   Integral package                     .... LIBINT
 Reset frequeny         DirectResetFreq ....    20
 Integral Threshold     Thresh          ....  2.500e-11 Eh
 Primitive CutOff       TCut            ....  2.500e-12 Eh

Convergence Tolerance:
 Convergence Check Mode ConvCheckMode   .... Total+1el-Energy
 Energy Change          TolE            ....  1.000e-08 Eh
 1-El. energy change                    ....  1.000e-05 Eh
 Orbital Gradient       TolG            ....  1.000e-05
 Orbital Rotation angle TolX            ....  1.000e-05
 DIIS Error             TolErr          ....  5.000e-07


Diagonalization of the overlap matrix:
Smallest eigenvalue                        ... 5.785e-05
Time for diagonalization                   ...    1.655 sec
Threshold for overlap eigenvalues          ... 1.000e-08
Number of eigenvalues below threshold      ... 0
Time for construction of square roots      ...    0.430 sec
Total time needed                          ...    2.086 sec

-------------------
DFT GRID GENERATION
-------------------

General Integration Accuracy     IntAcc      ...  4.340
Radial Grid Type                 RadialGrid  ... Gauss-Chebyshev
Angular Grid (max. acc.)         AngularGrid ... Lebedev-110
Angular grid pruning method      GridPruning ... 3 (G Style)
Weight generation scheme         WeightScheme... Becke
Basis function cutoff            BFCut       ...    1.0000e-11
Integration weight cutoff        WCut        ...    1.0000e-14
Grids for H and He will be reduced by one unit

# of grid points (after initial pruning)     ...  33120 (   0.0 sec)
# of grid points (after weights+screening)   ...  29130 (   0.1 sec)
nearest neighbour list constructed           ...    0.0 sec
Grid point re-assignment to atoms done       ...    0.0 sec
Grid point division into batches done        ...    0.0 sec
Reduced shell lists constructed in    0.1 sec

Total number of grid points                  ...    29130
Total number of batches                      ...      467
Average number of points per batch           ...       62
Average number of grid points per atom       ...     1456
Average number of shells per batch           ...    80.39 (66.99%)
Average number of basis functions per batch  ...   191.48 (68.39%)
Average number of large shells per batch     ...    61.55 (76.57%)
Average number of large basis fcns per batch ...   142.58 (74.46%)
Maximum spatial batch extension              ...  17.64, 18.87, 15.03 au
Average spatial batch extension              ...   0.27,  0.31,  0.26 au

Time for grid setup =    0.472 sec

------------------------------
INITIAL GUESS: MODEL POTENTIAL
------------------------------
Loading Hartree-Fock densities                     ... done
Calculating cut-offs                               ... done
Setting up the integral package                    ... done
Initializing the effective Hamiltonian             ... done
Starting the Coulomb interaction                   ... done (   0.0 sec)
Reading the grid                                   ... done
Mapping shells                                     ... done
Starting the XC term evaluation                    ... done (   0.1 sec)
  promolecular density results
     # of electrons  =    119.994481367
     EX              =   -102.479769459
     EC              =     -4.214609438
     EX+EC           =   -106.694378898
Transforming the Hamiltonian                       ... done (   0.0 sec)
Diagonalizing the Hamiltonian                      ... done (   0.0 sec)
Back transforming the eigenvectors                 ... done (   0.0 sec)
Now organizing SCF variables                       ... done
                      ------------------
                      INITIAL GUESS DONE (   0.8 sec)
                      ------------------
--------------------
COSX GRID GENERATION
--------------------

General Integration Accuracy     IntAcc      ...  3.340
Radial Grid Type                 RadialGrid  ... Gauss-Chebyshev
Angular Grid (max. acc.)         AngularGrid ... Lebedev-50
Angular grid pruning method      GridPruning ... 3 (G Style)
Weight generation scheme         WeightScheme... Becke
Basis function cutoff            BFCut       ...    1.0000e-11
Integration weight cutoff        WCut        ...    1.0000e-14
Grids for H and He will be reduced by one unit

# of grid points (after initial pruning)     ...  11600 (   0.0 sec)
# of grid points (after weights+screening)   ...  10446 (   0.0 sec)
nearest neighbour list constructed           ...    0.0 sec
Grid point re-assignment to atoms done       ...    0.0 sec
Grid point division into batches done        ...    0.0 sec
Reduced shell lists constructed in    0.0 sec

Total number of grid points                  ...    10446
Total number of batches                      ...      178
Average number of points per batch           ...       58
Average number of grid points per atom       ...      522
Average number of shells per batch           ...    85.31 (71.09%)
Average number of basis functions per batch  ...   204.23 (72.94%)
Average number of large shells per batch     ...    67.92 (79.62%)
Average number of large basis fcns per batch ...   159.15 (77.93%)
Maximum spatial batch extension              ...  14.63, 14.39, 14.02 au
Average spatial batch extension              ...   0.36,  0.36,  0.36 au

Overlap Fitting                  UseSFitting ... on
Constructing numerical overlap ... done (      0.0 sec)
Inverting numerical overlap    ... done (      0.0 sec)
Obtaining analytic overlap     ... done (      0.1 sec)
Final contraction and storage  ... done (      0.0 sec)


General Integration Accuracy     IntAcc      ...  3.670
Radial Grid Type                 RadialGrid  ... Gauss-Chebyshev
Angular Grid (max. acc.)         AngularGrid ... Lebedev-50
Angular grid pruning method      GridPruning ... 3 (G Style)
Weight generation scheme         WeightScheme... Becke
Basis function cutoff            BFCut       ...    1.0000e-11
Integration weight cutoff        WCut        ...    1.0000e-14
Grids for H and He will be reduced by one unit

# of grid points (after initial pruning)     ...  14120 (   0.1 sec)
# of grid points (after weights+screening)   ...  12662 (   0.0 sec)
nearest neighbour list constructed           ...    0.0 sec
Grid point re-assignment to atoms done       ...    0.0 sec
Grid point division into batches done        ...    0.0 sec
Reduced shell lists constructed in    0.0 sec

Total number of grid points                  ...    12662
Total number of batches                      ...      209
Average number of points per batch           ...       60
Average number of grid points per atom       ...      633
Average number of shells per batch           ...    85.13 (70.94%)
Average number of basis functions per batch  ...   203.93 (72.83%)
Average number of large shells per batch     ...    65.60 (77.06%)
Average number of large basis fcns per batch ...   152.53 (74.80%)
Maximum spatial batch extension              ...  15.80, 15.30, 15.00 au
Average spatial batch extension              ...   0.33,  0.34,  0.35 au

Overlap Fitting                  UseSFitting ... on
Constructing numerical overlap ... done (      0.0 sec)
Inverting numerical overlap    ... done (      0.0 sec)
Obtaining analytic overlap     ... done (      0.0 sec)
Final contraction and storage  ... done (      0.0 sec)


General Integration Accuracy     IntAcc      ...  4.010
Radial Grid Type                 RadialGrid  ... Gauss-Chebyshev
Angular Grid (max. acc.)         AngularGrid ... Lebedev-110
Angular grid pruning method      GridPruning ... 3 (G Style)
Weight generation scheme         WeightScheme... Becke
Basis function cutoff            BFCut       ...    1.0000e-11
Integration weight cutoff        WCut        ...    1.0000e-14
Grids for H and He will be reduced by one unit

# of grid points (after initial pruning)     ...  29360 (   0.1 sec)
# of grid points (after weights+screening)   ...  25920 (   0.0 sec)
nearest neighbour list constructed           ...    0.0 sec
Grid point re-assignment to atoms done       ...    0.0 sec
Grid point division into batches done        ...    0.0 sec
Reduced shell lists constructed in    0.1 sec

Total number of grid points                  ...    25920
Total number of batches                      ...      415
Average number of points per batch           ...       62
Average number of grid points per atom       ...     1296
Average number of shells per batch           ...    81.04 (67.53%)
Average number of basis functions per batch  ...   193.26 (69.02%)
Average number of large shells per batch     ...    62.70 (77.38%)
Average number of large basis fcns per batch ...   145.22 (75.14%)
Maximum spatial batch extension              ...  16.61, 16.59, 14.34 au
Average spatial batch extension              ...   0.27,  0.31,  0.25 au

Overlap Fitting                  UseSFitting ... on
Constructing numerical overlap ... done (      0.1 sec)
Inverting numerical overlap    ... done (      0.0 sec)
Obtaining analytic overlap     ... done (      0.0 sec)
Final contraction and storage  ... done (      0.0 sec)

Time for X-Grid setup             =    0.869 sec
--------------
SCF ITERATIONS
--------------
ITER       Energy         Delta-E        Max-DP      RMS-DP      [F,P]     Damp
               ***  Starting incremental Fock matrix formation  ***
  0   -759.8885394322   0.000000000000 0.21095971  0.00608054  0.0701717 0.7000
  1   -759.9775327364  -0.088993304205 0.12682369  0.00384894  0.0299282 0.7000
                               ***Turning on DIIS***
  2   -760.0137510068  -0.036218270414 0.20692564  0.00660672  0.0148645 0.0000
  3   -760.0718851218  -0.058134115008 0.13003097  0.00328318  0.0191568 0.0000
                      *** Initiating the SOSCF procedure ***
                           *** Shutting down DIIS ***
                      *** Re-Reading the Fockian *** 
                      *** Removing any level shift *** 
ITER      Energy       Delta-E        Grad      Rot      Max-DP    RMS-DP
  4   -760.08401242  -0.0121272968  0.002396  0.002396  0.010044  0.000330
               *** Restarting incremental Fock matrix formation ***
  5   -760.08453231  -0.0005198869  0.000654  0.001666  0.002521  0.000104
  6   -760.08453930  -0.0000069921  0.000539  0.000867  0.003823  0.000110
  7   -760.08455186  -0.0000125585  0.000149  0.000516  0.000967  0.000033
  8   -760.08455255  -0.0000006985  0.000156  0.000456  0.001134  0.000030
  9   -760.08455331  -0.0000007592  0.000072  0.000158  0.000946  0.000024
 10   -760.08455332  -0.0000000017  0.000032  0.000066  0.000097  0.000004
 11   -760.08455343  -0.0000001123  0.000019  0.000041  0.000366  0.000009
 12   -760.08455347  -0.0000000456  0.000014  0.000016  0.000155  0.000004
 13   -760.08455343   0.0000000401  0.000004  0.000017  0.000070  0.000002
 14   -760.08455342   0.0000000123  0.000010  0.000016  0.000053  0.000001
 15   -760.08455344  -0.0000000211  0.000003  0.000014  0.000037  0.000001
 16   -760.08455345  -0.0000000078  0.000006  0.000010  0.000026  0.000001
                  ***Gradient check signals convergence***
              ***Rediagonalizing the Fockian in SOSCF/NRSCF***

               *****************************************************
               *                     SUCCESS                       *
               *           SCF CONVERGED AFTER  17 CYCLES          *
               *****************************************************

Setting up the final grid:

General Integration Accuracy     IntAcc      ...  4.670
Radial Grid Type                 RadialGrid  ... Gauss-Chebyshev
Angular Grid (max. acc.)         AngularGrid ... Lebedev-302
Angular grid pruning method      GridPruning ... 3 (G Style)
Weight generation scheme         WeightScheme... Becke
Basis function cutoff            BFCut       ...    1.0000e-11
Integration weight cutoff        WCut        ...    1.0000e-14
Grids for H and He will be reduced by one unit

# of grid points (after initial pruning)     ... 124240 (   0.0 sec)
# of grid points (after weights+screening)   ... 106610 (   0.1 sec)
nearest neighbour list constructed           ...    0.0 sec
Grid point re-assignment to atoms done       ...    0.0 sec
Grid point division into batches done        ...    0.4 sec
Reduced shell lists constructed in    0.5 sec

Total number of grid points                  ...   106610
Total number of batches                      ...     1678
Average number of points per batch           ...       63
Average number of grid points per atom       ...     5330
Average number of shells per batch           ...    73.50 (61.25%)
Average number of basis functions per batch  ...   173.46 (61.95%)
Average number of large shells per batch     ...    55.69 (75.77%)
Average number of large basis fcns per batch ...   127.97 (73.77%)
Maximum spatial batch extension              ...  14.64, 14.35, 15.22 au
Average spatial batch extension              ...   0.18,  0.17,  0.17 au

Final grid set up in    0.8 sec
Final integration                            ... done (   0.5 sec)
Change in XC energy                          ...     0.000303203
Integrated number of electrons               ...   119.999820186
Previous integrated no of electrons          ...   119.998208649
Old exchange energy                            =    -25.800010987 Eh
New exchange energy                            =    -25.800224911 Eh
Exchange energy change after final integration =     -0.000213924 Eh
Total energy after final integration           =   -760.084464164 Eh
Final COS-X integration done in                =     1.852 sec

----------------
TOTAL SCF ENERGY
----------------

Total Energy       :         -760.08446416 Eh          -20682.94977 eV

Components:
Nuclear Repulsion  :         1425.11325089 Eh           38779.30306 eV
Electronic Energy  :        -2185.19771506 Eh          -59462.25283 eV

One Electron Energy:        -3854.49478154 Eh         -104886.13531 eV
Two Electron Energy:         1669.29706648 Eh           45423.88248 eV

Virial components:
Potential Energy   :        -1512.50218347 Eh          -41157.27681 eV
Kinetic Energy     :          752.41771931 Eh           20474.32704 eV
Virial Ratio       :            2.01018948


DFT components:
N(Alpha)           :       59.999910092826 electrons
N(Beta)            :       59.999910092826 electrons
N(Total)           :      119.999820185652 electrons
E(X)               :      -77.392504578998 Eh       
E(C)               :       -4.192084304396 Eh       
E(XC)              :      -81.584588883394 Eh       

---------------
SCF CONVERGENCE
---------------

  Last Energy change         ...    5.9295e-09  Tolerance :   1.0000e-08
  Last MAX-Density change    ...    3.6136e-14  Tolerance :   1.0000e-07
  Last RMS-Density change    ...    5.1413e-16  Tolerance :   5.0000e-09
  Last Orbital Gradient      ...    1.0682e-06  Tolerance :   1.0000e-05
  Last Orbital Rotation      ...    6.5099e-06  Tolerance :   1.0000e-05

             **** THE GBW FILE WAS UPDATED (c20_fullerene.gbw) ****
             **** DENSITY FILE WAS UPDATED (c20_fullerene.scfp.tmp) ****
             **** ENERGY FILE WAS UPDATED (c20_fullerene.en.tmp) ****
----------------
ORBITAL ENERGIES
----------------

  NO   OCC          E(Eh)            E(eV) 
   0   2.0000     -10.317967      -280.7662 
   1   2.0000     -10.317941      -280.7654 
   2   2.0000     -10.317658      -280.7577 
   3   2.0000     -10.317640      -280.7573 
   4   2.0000     -10.314917      -280.6832 
   5   2.0000     -10.314840      -280.6811 
   6   2.0000     -10.314806      -280.6801 
   7   2.0000     -10.314783      -280.6795 
   8   2.0000     -10.314661      -280.6762 
   9   2.0000     -10.314632      -280.6754 
  10   2.0000     -10.314629      -280.6753 
  11   2.0000     -10.314528      -280.6726 
  12   2.0000     -10.295860      -280.1646 
  13   2.0000     -10.295847      -280.1642 
  14   2.0000     -10.295816      -280.1634 
  15   2.0000     -10.295799      -280.1629 
  16   2.0000     -10.295747      -280.1615 
  17   2.0000     -10.295683      -280.1598 
  18   2.0000     -10.294978      -280.1406 
  19   2.0000     -10.294969      -280.1403 
  20   2.0000      -1.057573       -28.7780 
  21   2.0000      -0.970100       -26.3978 
  22   2.0000      -0.969990       -26.3948 
  23   2.0000      -0.969113       -26.3709 
  24   2.0000      -0.838011       -22.8034 
  25   2.0000      -0.835533       -22.7360 
  26   2.0000      -0.829301       -22.5664 
  27   2.0000      -0.824669       -22.4404 
  28   2.0000      -0.818233       -22.2652 
  29   2.0000      -0.692589       -18.8463 
  30   2.0000      -0.667552       -18.1650 
  31   2.0000      -0.667394       -18.1607 
  32   2.0000      -0.662036       -18.0149 
  33   2.0000      -0.653472       -17.7819 
  34   2.0000      -0.649795       -17.6818 
  35   2.0000      -0.641671       -17.4608 
  36   2.0000      -0.522506       -14.2181 
  37   2.0000      -0.522405       -14.2154 
  38   2.0000      -0.520961       -14.1761 
  39   2.0000      -0.510751       -13.8982 
  40   2.0000      -0.503274       -13.6948 
  41   2.0000      -0.484995       -13.1974 
  42   2.0000      -0.480320       -13.0702 
  43   2.0000      -0.473562       -12.8863 
  44   2.0000      -0.462640       -12.5891 
  45   2.0000      -0.456723       -12.4281 
  46   2.0000      -0.435865       -11.8605 
  47   2.0000      -0.435579       -11.8527 
  48   2.0000      -0.435534       -11.8515 
  49   2.0000      -0.404494       -11.0068 
  50   2.0000      -0.401553       -10.9268 
  51   2.0000      -0.396427       -10.7873 
  52   2.0000      -0.390934       -10.6379 
  53   2.0000      -0.389058       -10.5868 
  54   2.0000      -0.310865        -8.4591 
  55   2.0000      -0.304048        -8.2736 
  56   2.0000      -0.288654        -7.8547 
  57   2.0000      -0.282812        -7.6957 
  58   2.0000      -0.269426        -7.3315 
  59   2.0000      -0.206298        -5.6137 
  60   0.0000      -0.125891        -3.4257 
  61   0.0000      -0.123886        -3.3711 
  62   0.0000      -0.123592        -3.3631 
  63   0.0000      -0.071994        -1.9591 
  64   0.0000      -0.069138        -1.8813 
  65   0.0000      -0.061573        -1.6755 
  66   0.0000      -0.033928        -0.9232 
  67   0.0000      -0.032103        -0.8736 
  68   0.0000      -0.019820        -0.5393 
  69   0.0000      -0.010039        -0.2732 
  70   0.0000       0.072312         1.9677 
  71   0.0000       0.079382         2.1601 
  72   0.0000       0.103359         2.8125 
  73   0.0000       0.178452         4.8559 
  74   0.0000       0.208346         5.6694 
  75   0.0000       0.212284         5.7765 
  76   0.0000       0.213119         5.7993 
  77   0.0000       0.213620         5.8129 
  78   0.0000       0.220652         6.0042 
  79   0.0000       0.220764         6.0073 
  80   0.0000       0.223065         6.0699 
  81   0.0000       0.223301         6.0763 
  82   0.0000       0.224624         6.1123 
  83   0.0000       0.225664         6.1406 
  84   0.0000       0.271450         7.3865 
  85   0.0000       0.375783        10.2256 
  86   0.0000       0.380760        10.3610 
  87   0.0000       0.381141        10.3714 
  88   0.0000       0.385144        10.4803 
  89   0.0000       0.387244        10.5374 
  90   0.0000       0.388878        10.5819 
  91   0.0000       0.390556        10.6276 
  92   0.0000       0.391281        10.6473 
  93   0.0000       0.403385        10.9767 
  94   0.0000       0.419030        11.4024 
  95   0.0000       0.424003        11.5377 
  96   0.0000       0.424411        11.5488 
  97   0.0000       0.425474        11.5777 
  98   0.0000       0.435143        11.8409 
  99   0.0000       0.435764        11.8578 
 100   0.0000       0.435879        11.8609 
 101   0.0000       0.437468        11.9041 
 102   0.0000       0.438284        11.9263 
 103   0.0000       0.440208        11.9787 
 104   0.0000       0.441968        12.0265 
 105   0.0000       0.444817        12.1041 
 106   0.0000       0.462904        12.5963 
 107   0.0000       0.476207        12.9582 
 108   0.0000       0.480029        13.0623 
 109   0.0000       0.481047        13.0900 
 110   0.0000       0.481373        13.0988 
 111   0.0000       0.507879        13.8201 
 112   0.0000       0.509174        13.8553 
 113   0.0000       0.525808        14.3080 
 114   0.0000       0.527247        14.3471 
 115   0.0000       0.531823        14.4717 
 116   0.0000       0.545179        14.8351 
 117   0.0000       0.551279        15.0011 
 118   0.0000       0.555084        15.1046 
 119   0.0000       0.561648        15.2832 
 120   0.0000       0.563131        15.3236 
 121   0.0000       0.564202        15.3527 
 122   0.0000       0.572197        15.5703 
 123   0.0000       0.582468        15.8498 
 124   0.0000       0.599857        16.3229 
 125   0.0000       0.601959        16.3801 
 126   0.0000       0.602452        16.3936 
 127   0.0000       0.604455        16.4480 
 128   0.0000       0.605437        16.4748 
 129   0.0000       0.617111        16.7925 
 130   0.0000       0.619338        16.8530 
 131   0.0000       0.638667        17.3790 
 132   0.0000       0.654032        17.7971 
 133   0.0000       0.664020        18.0689 
 134   0.0000       0.675206        18.3733 
 135   0.0000       0.679383        18.4869 
 136   0.0000       0.686359        18.6768 
 137   0.0000       0.721797        19.6411 
 138   0.0000       0.725018        19.7287 
 139   0.0000       0.736389        20.0382 
 140   0.0000       0.736699        20.0466 
 141   0.0000       0.737862        20.0783 
 142   0.0000       0.740461        20.1490 
 143   0.0000       0.740783        20.1577 
 144   0.0000       0.756625        20.5888 
 145   0.0000       0.761953        20.7338 
 146   0.0000       0.781544        21.2669 
 147   0.0000       0.785103        21.3637 
 148   0.0000       0.786129        21.3917 
 149   0.0000       0.789729        21.4896 
 150   0.0000       0.800793        21.7907 
 151   0.0000       0.801677        21.8147 
 152   0.0000       0.822154        22.3719 
 153   0.0000       0.836372        22.7588 
 154   0.0000       0.840294        22.8656 
 155   0.0000       0.845914        23.0185 
 156   0.0000       0.848902        23.0998 
 157   0.0000       0.859193        23.3798 
 158   0.0000       0.860254        23.4087 
 159   0.0000       0.881710        23.9926 
 160   0.0000       0.884522        24.0691 
 161   0.0000       0.887646        24.1541 
 162   0.0000       0.887680        24.1550 
 163   0.0000       0.888553        24.1787 
 164   0.0000       0.899671        24.4813 
 165   0.0000       0.904102        24.6019 
 166   0.0000       0.937261        25.5042 
 167   0.0000       0.941766        25.6268 
 168   0.0000       0.942053        25.6346 
 169   0.0000       1.002879        27.2897 
 170   0.0000       1.003202        27.2985 
 171   0.0000       1.007146        27.4058 
 172   0.0000       1.269371        34.5413 
 173   0.0000       1.550908        42.2024 
 174   0.0000       1.554783        42.3078 
 175   0.0000       1.577156        42.9166 
 176   0.0000       1.607001        43.7287 
 177   0.0000       1.616476        43.9866 
 178   0.0000       1.618743        44.0482 
 179   0.0000       1.622060        44.1385 
 180   0.0000       1.623593        44.1802 
 181   0.0000       1.632667        44.4271 
 182   0.0000       1.636981        44.5445 
 183   0.0000       1.638522        44.5865 
 184   0.0000       1.654176        45.0124 
 185   0.0000       1.662748        45.2457 
 186   0.0000       1.674104        45.5547 
 187   0.0000       1.681009        45.7426 
 188   0.0000       1.685574        45.8668 
 189   0.0000       1.690522        46.0014 
 190   0.0000       1.696832        46.1731 
 191   0.0000       1.698446        46.2171 
 192   0.0000       1.699753        46.2526 
 193   0.0000       1.728412        47.0325 
 194   0.0000       1.761008        47.9195 
 195   0.0000       1.763889        47.9978 
 196   0.0000       1.775951        48.3261 
 197   0.0000       1.779418        48.4204 
 198   0.0000       1.797582        48.9147 
 199   0.0000       1.798139        48.9299 
 200   0.0000       1.808237        49.2046 
 201   0.0000       1.812333        49.3161 
 202   0.0000       1.821166        49.5564 
 203   0.0000       1.836999        49.9873 
 204   0.0000       1.841371        50.1063 
 205   0.0000       1.842247        50.1301 
 206   0.0000       1.843255        50.1575 
 207   0.0000       1.844015        50.1782 
 208   0.0000       1.846786        50.2536 
 209   0.0000       1.852665        50.4136 
 210   0.0000       1.857792        50.5531 
 211   0.0000       1.864661        50.7400 
 212   0.0000       1.872511        50.9536 
 213   0.0000       1.887349        51.3574 
 214   0.0000       1.898735        51.6672 
 215   0.0000       1.906431        51.8766 
 216   0.0000       1.906982        51.8916 
 217   0.0000       1.916272        52.1444 
 218   0.0000       1.919694        52.2375 
 219   0.0000       1.922276        52.3078 
 220   0.0000       1.933790        52.6211 
 221   0.0000       1.964205        53.4487 
 222   0.0000       1.964581        53.4590 
 223   0.0000       1.974595        53.7315 
 224   0.0000       1.991479        54.1909 
 225   0.0000       2.067022        56.2465 
 226   0.0000       2.075984        56.4904 
 227   0.0000       2.088267        56.8246 
 228   0.0000       2.109785        57.4102 
 229   0.0000       2.112856        57.4937 
 230   0.0000       2.169171        59.0261 
 231   0.0000       2.208377        60.0930 
 232   0.0000       2.290877        62.3379 
 233   0.0000       2.358039        64.1655 
 234   0.0000       2.366819        64.4044 
 235   0.0000       2.396115        65.2016 
 236   0.0000       2.408863        65.5485 
 237   0.0000       2.415057        65.7170 
 238   0.0000       2.427266        66.0493 
 239   0.0000       2.428582        66.0851 
 240   0.0000       2.438154        66.3455 
 241   0.0000       2.446085        66.5614 
 242   0.0000       2.514597        68.4257 
 243   0.0000       2.516020        68.4644 
 244   0.0000       2.518040        68.5194 
 245   0.0000       2.524392        68.6922 
 246   0.0000       2.531668        68.8902 
 247   0.0000       2.534212        68.9594 
 248   0.0000       2.538395        69.0733 
 249   0.0000       2.541860        69.1675 
 250   0.0000       2.542406        69.1824 
 251   0.0000       2.555300        69.5333 
 252   0.0000       2.562342        69.7249 
 253   0.0000       2.565507        69.8110 
 254   0.0000       2.583286        70.2948 
 255   0.0000       2.632444        71.6324 
 256   0.0000       2.666633        72.5628 
 257   0.0000       2.674337        72.7724 
 258   0.0000       2.690606        73.2151 
 259   0.0000       2.692908        73.2778 
 260   0.0000       2.713078        73.8266 
 261   0.0000       2.724723        74.1435 
 262   0.0000       2.727695        74.2244 
 263   0.0000       2.731209        74.3200 
 264   0.0000       2.733265        74.3759 
 265   0.0000       2.734864        74.4194 
 266   0.0000       2.736614        74.4670 
 267   0.0000       2.741550        74.6014 
 268   0.0000       2.742997        74.6408 
 269   0.0000       2.751804        74.8804 
 270   0.0000       2.764100        75.2150 
 271   0.0000       2.785520        75.7979 
 272   0.0000       2.933744        79.8312 
 273   0.0000       2.961059        80.5745 
 274   0.0000       2.980599        81.1062 
 275   0.0000       2.993687        81.4624 
 276   0.0000       2.999225        81.6131 
 277   0.0000       3.014901        82.0396 
 278   0.0000       3.016834        82.0922 
 279   0.0000       3.018144        82.1279 

                    ********************************
                    * MULLIKEN POPULATION ANALYSIS *
                    ********************************

-----------------------
MULLIKEN ATOMIC CHARGES
-----------------------
   0 C :   -0.060626
   1 C :    0.047479
   2 C :    0.047445
   3 C :   -0.060609
   4 C :    0.021452
   5 C :    0.019095
   6 C :   -0.052488
   7 C :    0.045382
   8 C :    0.045322
   9 C :   -0.052467
  10 C :    0.019128
  11 C :    0.021406
  12 C :   -0.060578
  13 C :    0.047444
  14 C :    0.047439
  15 C :   -0.052474
  16 C :    0.045349
  17 C :    0.045352
  18 C :   -0.052479
  19 C :   -0.060573
Sum of atomic charges:   -0.0000000

--------------------------------
MULLIKEN REDUCED ORBITAL CHARGES
--------------------------------
  0 C s       :     3.115123  s :     3.115123
      pz      :     0.960072  p :     2.895049
      px      :     0.938560
      py      :     0.996417
      dz2     :     0.011033  d :     0.050454
      dxz     :     0.010972
      dyz     :     0.008276
      dx2y2   :     0.009537
      dxy     :     0.010634
  1 C s       :     3.108448  s :     3.108448
      pz      :     0.940683  p :     2.794314
      px      :     0.926875
      py      :     0.926756
      dz2     :     0.012103  d :     0.049758
      dxz     :     0.008777
      dyz     :     0.010097
      dx2y2   :     0.010242
      dxy     :     0.008539
  2 C s       :     3.108484  s :     3.108484
      pz      :     0.940682  p :     2.794312
      px      :     0.926876
      py      :     0.926755
      dz2     :     0.012103  d :     0.049758
      dxz     :     0.008778
      dyz     :     0.010097
      dx2y2   :     0.010242
      dxy     :     0.008539
  3 C s       :     3.115091  s :     3.115091
      pz      :     0.960071  p :     2.895064
      px      :     0.938564
      py      :     0.996429
      dz2     :     0.011033  d :     0.050454
      dxz     :     0.010973
      dyz     :     0.008276
      dx2y2   :     0.009537
      dxy     :     0.010634
  4 C s       :     3.200127  s :     3.200127
      pz      :     0.858752  p :     2.731397
      px      :     0.905868
      py      :     0.966777
      dz2     :     0.009186  d :     0.047024
      dxz     :     0.012116
      dyz     :     0.007727
      dx2y2   :     0.007071
      dxy     :     0.010925
  5 C s       :     3.207295  s :     3.207295
      pz      :     0.857853  p :     2.726628
      px      :     0.960167
      py      :     0.908609
      dz2     :     0.009155  d :     0.046981
      dxz     :     0.007644
      dyz     :     0.012183
      dx2y2   :     0.010336
      dxy     :     0.007663
  6 C s       :     3.109400  s :     3.109400
      pz      :     0.960613  p :     2.892578
      px      :     1.008993
      py      :     0.922972
      dz2     :     0.011068  d :     0.050510
      dxz     :     0.007901
      dyz     :     0.011351
      dx2y2   :     0.010870
      dxy     :     0.009320
  7 C s       :     3.195817  s :     3.195817
      pz      :     0.915460  p :     2.711734
      px      :     0.898016
      py      :     0.898258
      dz2     :     0.007752  d :     0.047067
      dxz     :     0.010448
      dyz     :     0.008078
      dx2y2   :     0.009849
      dxy     :     0.010940
  8 C s       :     3.195878  s :     3.195878
      pz      :     0.915455  p :     2.711733
      px      :     0.898016
      py      :     0.898261
      dz2     :     0.007752  d :     0.047067
      dxz     :     0.010448
      dyz     :     0.008078
      dx2y2   :     0.009849
      dxy     :     0.010940
  9 C s       :     3.109374  s :     3.109374
      pz      :     0.960623  p :     2.892583
      px      :     1.008988
      py      :     0.922972
      dz2     :     0.011068  d :     0.050510
      dxz     :     0.007901
      dyz     :     0.011352
      dx2y2   :     0.010870
      dxy     :     0.009320
 10 C s       :     3.207244  s :     3.207244
      pz      :     0.857852  p :     2.726647
      px      :     0.960179
      py      :     0.908615
      dz2     :     0.009155  d :     0.046981
      dxz     :     0.007645
      dyz     :     0.012183
      dx2y2   :     0.010336
      dxy     :     0.007663
 11 C s       :     3.200188  s :     3.200188
      pz      :     0.858754  p :     2.731383
      px      :     0.905872
      py      :     0.966756
      dz2     :     0.009186  d :     0.047023
      dxz     :     0.012115
      dyz     :     0.007727
      dx2y2   :     0.007071
      dxy     :     0.010924
 12 C s       :     3.115056  s :     3.115056
      pz      :     0.960067  p :     2.895068
      px      :     0.938567
      py      :     0.996434
      dz2     :     0.011034  d :     0.050454
      dxz     :     0.010973
      dyz     :     0.008276
      dx2y2   :     0.009538
      dxy     :     0.010634
 13 C s       :     3.108486  s :     3.108486
      pz      :     0.940684  p :     2.794312
      px      :     0.926871
      py      :     0.926758
      dz2     :     0.012103  d :     0.049759
      dxz     :     0.008778
      dyz     :     0.010097
      dx2y2   :     0.010242
      dxy     :     0.008539
 14 C s       :     3.108490  s :     3.108490
      pz      :     0.940685  p :     2.794312
      px      :     0.926877
      py      :     0.926750
      dz2     :     0.012103  d :     0.049759
      dxz     :     0.008778
      dyz     :     0.010097
      dx2y2   :     0.010242
      dxy     :     0.008539
 15 C s       :     3.109393  s :     3.109393
      pz      :     0.960613  p :     2.892572
      px      :     1.008985
      py      :     0.922973
      dz2     :     0.011068  d :     0.050510
      dxz     :     0.007901
      dyz     :     0.011351
      dx2y2   :     0.010870
      dxy     :     0.009320
 16 C s       :     3.195852  s :     3.195852
      pz      :     0.915458  p :     2.711732
      px      :     0.898018
      py      :     0.898257
      dz2     :     0.007752  d :     0.047067
      dxz     :     0.010448
      dyz     :     0.008078
      dx2y2   :     0.009849
      dxy     :     0.010940
 17 C s       :     3.195864  s :     3.195864
      pz      :     0.915450  p :     2.711718
      px      :     0.898014
      py      :     0.898255
      dz2     :     0.007752  d :     0.047066
      dxz     :     0.010448
      dyz     :     0.008078
      dx2y2   :     0.009849
      dxy     :     0.010940
 18 C s       :     3.109385  s :     3.109385
      pz      :     0.960619  p :     2.892585
      px      :     1.008988
      py      :     0.922978
      dz2     :     0.011068  d :     0.050509
      dxz     :     0.007901
      dyz     :     0.011351
      dx2y2   :     0.010870
      dxy     :     0.009320
 19 C s       :     3.115039  s :     3.115039
      pz      :     0.960070  p :     2.895080
      px      :     0.938569
      py      :     0.996441
      dz2     :     0.011033  d :     0.050454
      dxz     :     0.010972
      dyz     :     0.008276
      dx2y2   :     0.009537
      dxy     :     0.010634


                     *******************************
                     * LOEWDIN POPULATION ANALYSIS *
                     *******************************

----------------------
LOEWDIN ATOMIC CHARGES
----------------------
   0 C :    0.027746
   1 C :    0.014612
   2 C :    0.014608
   3 C :    0.027745
   4 C :   -0.034205
   5 C :   -0.035991
   6 C :    0.028549
   7 C :   -0.035809
   8 C :   -0.035808
   9 C :    0.028552
  10 C :   -0.035989
  11 C :   -0.034206
  12 C :    0.027742
  13 C :    0.014608
  14 C :    0.014609
  15 C :    0.028553
  16 C :   -0.035805
  17 C :   -0.035805
  18 C :    0.028551
  19 C :    0.027744

-------------------------------
LOEWDIN REDUCED ORBITAL CHARGES
-------------------------------
  0 C s       :     2.885717  s :     2.885717
      pz      :     0.988954  p :     2.967353
      px      :     1.006643
      py      :     0.971756
      dz2     :     0.024389  d :     0.119185
      dxz     :     0.029241
      dyz     :     0.018947
      dx2y2   :     0.019482
      dxy     :     0.027126
  1 C s       :     2.882797  s :     2.882797
      pz      :     1.014985  p :     2.983343
      px      :     0.962063
      py      :     1.006295
      dz2     :     0.033719  d :     0.119248
      dxz     :     0.018006
      dyz     :     0.023267
      dx2y2   :     0.025686
      dxy     :     0.018568
  2 C s       :     2.882797  s :     2.882797
      pz      :     1.014985  p :     2.983346
      px      :     0.962065
      py      :     1.006296
      dz2     :     0.033719  d :     0.119248
      dxz     :     0.018006
      dyz     :     0.023267
      dx2y2   :     0.025686
      dxy     :     0.018568
  3 C s       :     2.885717  s :     2.885717
      pz      :     0.988953  p :     2.967354
      px      :     1.006644
      py      :     0.971756
      dz2     :     0.024389  d :     0.119185
      dxz     :     0.029241
      dyz     :     0.018947
      dx2y2   :     0.019482
      dxy     :     0.027126
  4 C s       :     2.887715  s :     2.887715
      pz      :     0.981848  p :     3.033442
      px      :     1.024141
      py      :     1.027452
      dz2     :     0.022758  d :     0.113048
      dxz     :     0.033317
      dyz     :     0.017005
      dx2y2   :     0.012716
      dxy     :     0.027252
  5 C s       :     2.887729  s :     2.887729
      pz      :     0.981279  p :     3.035195
      px      :     1.051430
      py      :     1.002486
      dz2     :     0.022754  d :     0.113066
      dxz     :     0.015465
      dyz     :     0.034908
      dx2y2   :     0.022323
      dxy     :     0.017617
  6 C s       :     2.885646  s :     2.885646
      pz      :     0.988576  p :     2.966570
      px      :     0.963654
      py      :     1.014341
      dz2     :     0.024426  d :     0.119234
      dxz     :     0.018076
      dyz     :     0.030086
      dx2y2   :     0.028341
      dxy     :     0.018304
  7 C s       :     2.888638  s :     2.888638
      pz      :     1.039660  p :     3.034800
      px      :     1.007678
      py      :     0.987461
      dz2     :     0.013378  d :     0.112372
      dxz     :     0.026497
      dyz     :     0.017675
      dx2y2   :     0.024684
      dxy     :     0.030137
  8 C s       :     2.888638  s :     2.888638
      pz      :     1.039658  p :     3.034798
      px      :     1.007677
      py      :     0.987462
      dz2     :     0.013378  d :     0.112372
      dxz     :     0.026497
      dyz     :     0.017675
      dx2y2   :     0.024684
      dxy     :     0.030137
  9 C s       :     2.885647  s :     2.885647
      pz      :     0.988575  p :     2.966568
      px      :     0.963651
      py      :     1.014341
      dz2     :     0.024426  d :     0.119234
      dxz     :     0.018076
      dyz     :     0.030086
      dx2y2   :     0.028341
      dxy     :     0.018304
 10 C s       :     2.887729  s :     2.887729
      pz      :     0.981279  p :     3.035194
      px      :     1.051429
      py      :     1.002486
      dz2     :     0.022754  d :     0.113066
      dxz     :     0.015465
      dyz     :     0.034908
      dx2y2   :     0.022322
      dxy     :     0.017617
 11 C s       :     2.887716  s :     2.887716
      pz      :     0.981849  p :     3.033442
      px      :     1.024141
      py      :     1.027452
      dz2     :     0.022758  d :     0.113048
      dxz     :     0.033317
      dyz     :     0.017006
      dx2y2   :     0.012716
      dxy     :     0.027252
 12 C s       :     2.885716  s :     2.885716
      pz      :     0.988955  p :     2.967357
      px      :     1.006644
      py      :     0.971758
      dz2     :     0.024389  d :     0.119185
      dxz     :     0.029241
      dyz     :     0.018947
      dx2y2   :     0.019482
      dxy     :     0.027126
 13 C s       :     2.882798  s :     2.882798
      pz      :     1.014985  p :     2.983347
      px      :     0.962066
      py      :     1.006296
      dz2     :     0.033719  d :     0.119248
      dxz     :     0.018006
      dyz     :     0.023267
      dx2y2   :     0.025686
      dxy     :     0.018568
 14 C s       :     2.882797  s :     2.882797
      pz      :     1.014985  p :     2.983346
      px      :     0.962064
      py      :     1.006296
      dz2     :     0.033719  d :     0.119248
      dxz     :     0.018006
      dyz     :     0.023267
      dx2y2   :     0.025686
      dxy     :     0.018568
 15 C s       :     2.885647  s :     2.885647
      pz      :     0.988575  p :     2.966567
      px      :     0.963652
      py      :     1.014341
      dz2     :     0.024426  d :     0.119234
      dxz     :     0.018076
      dyz     :     0.030086
      dx2y2   :     0.028341
      dxy     :     0.018304
 16 C s       :     2.888638  s :     2.888638
      pz      :     1.039657  p :     3.034796
      px      :     1.007677
      py      :     0.987461
      dz2     :     0.013378  d :     0.112372
      dxz     :     0.026497
      dyz     :     0.017675
      dx2y2   :     0.024684
      dxy     :     0.030137
 17 C s       :     2.888638  s :     2.888638
      pz      :     1.039658  p :     3.034796
      px      :     1.007677
      py      :     0.987461
      dz2     :     0.013378  d :     0.112372
      dxz     :     0.026497
      dyz     :     0.017675
      dx2y2   :     0.024684
      dxy     :     0.030137
 18 C s       :     2.885646  s :     2.885646
      pz      :     0.988576  p :     2.966569
      px      :     0.963652
      py      :     1.014340
      dz2     :     0.024426  d :     0.119233
      dxz     :     0.018076
      dyz     :     0.030086
      dx2y2   :     0.028341
      dxy     :     0.018304
 19 C s       :     2.885716  s :     2.885716
      pz      :     0.988954  p :     2.967356
      px      :     1.006644
      py      :     0.971758
      dz2     :     0.024389  d :     0.119185
      dxz     :     0.029241
      dyz     :     0.018947
      dx2y2   :     0.019482
      dxy     :     0.027126


                      *****************************
                      * MAYER POPULATION ANALYSIS *
                      *****************************

  NA   - Mulliken gross atomic population
  ZA   - Total nuclear charge
  QA   - Mulliken gross atomic charge
  VA   - Mayer's total valence
  BVA  - Mayer's bonded valence
  FA   - Mayer's free valence

  ATOM       NA         ZA         QA         VA         BVA        FA
  0 C      6.0606     6.0000    -0.0606     4.0350     4.0350    -0.0000
  1 C      5.9525     6.0000     0.0475     3.9724     3.9724    -0.0000
  2 C      5.9526     6.0000     0.0474     3.9724     3.9724     0.0000
  3 C      6.0606     6.0000    -0.0606     4.0350     4.0350     0.0000
  4 C      5.9785     6.0000     0.0215     3.8566     3.8566     0.0000
  5 C      5.9809     6.0000     0.0191     3.8482     3.8482     0.0000
  6 C      6.0525     6.0000    -0.0525     4.0283     4.0283    -0.0000
  7 C      5.9546     6.0000     0.0454     3.8361     3.8361     0.0000
  8 C      5.9547     6.0000     0.0453     3.8361     3.8361     0.0000
  9 C      6.0525     6.0000    -0.0525     4.0283     4.0283     0.0000
 10 C      5.9809     6.0000     0.0191     3.8482     3.8482     0.0000
 11 C      5.9786     6.0000     0.0214     3.8566     3.8566     0.0000
 12 C      6.0606     6.0000    -0.0606     4.0350     4.0350    -0.0000
 13 C      5.9526     6.0000     0.0474     3.9724     3.9724    -0.0000
 14 C      5.9526     6.0000     0.0474     3.9724     3.9724    -0.0000
 15 C      6.0525     6.0000    -0.0525     4.0283     4.0283     0.0000
 16 C      5.9547     6.0000     0.0453     3.8361     3.8361    -0.0000
 17 C      5.9546     6.0000     0.0454     3.8361     3.8361     0.0000
 18 C      6.0525     6.0000    -0.0525     4.0283     4.0283    -0.0000
 19 C      6.0606     6.0000    -0.0606     4.0350     4.0350     0.0000

  Mayer bond orders larger than 0.1
[...]
      dxz     :     0.010991
      dyz     :     0.008287
      dx2y2   :     0.009546
      dxy     :     0.010629
  4 C s       :     3.198821  s :     3.198821
      pz      :     0.859252  p :     2.731674
      px      :     0.906479
      py      :     0.965943
      dz2     :     0.009203  d :     0.047072
      dxz     :     0.012125
      dyz     :     0.007734
      dx2y2   :     0.007078
      dxy     :     0.010931
  5 C s       :     3.207709  s :     3.207709
      pz      :     0.857365  p :     2.727614
      px      :     0.960728
      py      :     0.909522
      dz2     :     0.009165  d :     0.046964
      dxz     :     0.007643
      dyz     :     0.012162
      dx2y2   :     0.010340
      dxy     :     0.007655
  6 C s       :     3.110847  s :     3.110847
      pz      :     0.959277  p :     2.890699
      px      :     1.008345
      py      :     0.923077
      dz2     :     0.011058  d :     0.050458
      dxz     :     0.007896
      dyz     :     0.011347
      dx2y2   :     0.010847
      dxy     :     0.009310
  7 C s       :     3.198778  s :     3.198778
      pz      :     0.914352  p :     2.709075
      px      :     0.896912
      py      :     0.897811
      dz2     :     0.007758  d :     0.047000
      dxz     :     0.010450
      dyz     :     0.008073
      dx2y2   :     0.009811
      dxy     :     0.010908
  8 C s       :     3.198815  s :     3.198815
      pz      :     0.914340  p :     2.709055
      px      :     0.896905
      py      :     0.897810
      dz2     :     0.007758  d :     0.047000
      dxz     :     0.010450
      dyz     :     0.008073
      dx2y2   :     0.009811
      dxy     :     0.010908
  9 C s       :     3.110871  s :     3.110871
      pz      :     0.959281  p :     2.890699
      px      :     1.008342
      py      :     0.923076
      dz2     :     0.011058  d :     0.050458
      dxz     :     0.007896
      dyz     :     0.011347
      dx2y2   :     0.010847
      dxy     :     0.009310
 10 C s       :     3.207640  s :     3.207640
      pz      :     0.857364  p :     2.727641
      px      :     0.960745
      py      :     0.909532
      dz2     :     0.009165  d :     0.046965
      dxz     :     0.007643
      dyz     :     0.012162
      dx2y2   :     0.010340
      dxy     :     0.007655
 11 C s       :     3.198901  s :     3.198901
      pz      :     0.859256  p :     2.731663
      px      :     0.906484
      py      :     0.965923
      dz2     :     0.009203  d :     0.047072
      dxz     :     0.012125
      dyz     :     0.007734
      dx2y2   :     0.007078
      dxy     :     0.010931
 12 C s       :     3.113528  s :     3.113528
      pz      :     0.960170  p :     2.897032
      px      :     0.939259
      py      :     0.997602
      dz2     :     0.011061  d :     0.050513
      dxz     :     0.010991
      dyz     :     0.008286
      dx2y2   :     0.009546
      dxy     :     0.010629
 13 C s       :     3.107685  s :     3.107685
      pz      :     0.940671  p :     2.794644
      px      :     0.926754
      py      :     0.927218
      dz2     :     0.012099  d :     0.049762
      dxz     :     0.008777
      dyz     :     0.010096
      dx2y2   :     0.010250
      dxy     :     0.008541
 14 C s       :     3.107704  s :     3.107704
      pz      :     0.940675  p :     2.794649
      px      :     0.926760
      py      :     0.927214
      dz2     :     0.012099  d :     0.049762
      dxz     :     0.008777
      dyz     :     0.010096
      dx2y2   :     0.010250
      dxy     :     0.008541
 15 C s       :     3.110868  s :     3.110868
      pz      :     0.959271  p :     2.890685
      px      :     1.008338
      py      :     0.923075
      dz2     :     0.011058  d :     0.050458
      dxz     :     0.007896
      dyz     :     0.011347
      dx2y2   :     0.010847
      dxy     :     0.009310
 16 C s       :     3.198805  s :     3.198805
      pz      :     0.914354  p :     2.709073
      px      :     0.896913
      py      :     0.897807
      dz2     :     0.007758  d :     0.047001
      dxz     :     0.010450
      dyz     :     0.008073
      dx2y2   :     0.009811
      dxy     :     0.010908
 17 C s       :     3.198815  s :     3.198815
      pz      :     0.914343  p :     2.709059
      px      :     0.896905
      py      :     0.897811
      dz2     :     0.007758  d :     0.047001
      dxz     :     0.010450
      dyz     :     0.008073
      dx2y2   :     0.009811
      dxy     :     0.010908
 18 C s       :     3.110868  s :     3.110868
      pz      :     0.959278  p :     2.890702
      px      :     1.008343
      py      :     0.923080
      dz2     :     0.011058  d :     0.050458
      dxz     :     0.007896
      dyz     :     0.011347
      dx2y2   :     0.010847
      dxy     :     0.009310
 19 C s       :     3.113512  s :     3.113512
      pz      :     0.960177  p :     2.897038
      px      :     0.939256
      py      :     0.997605
      dz2     :     0.011061  d :     0.050513
      dxz     :     0.010991
      dyz     :     0.008286
      dx2y2   :     0.009546
      dxy     :     0.010629


                     *******************************
                     * LOEWDIN POPULATION ANALYSIS *
                     *******************************

----------------------
LOEWDIN ATOMIC CHARGES
----------------------
   0 C :    0.027879
   1 C :    0.014397
   2 C :    0.014398
   3 C :    0.027880
   4 C :   -0.034300
   5 C :   -0.035804
   6 C :    0.028753
   7 C :   -0.035967
   8 C :   -0.035968
   9 C :    0.028750
  10 C :   -0.035807
  11 C :   -0.034304
  12 C :    0.027878
  13 C :    0.014397
  14 C :    0.014393
  15 C :    0.028752
  16 C :   -0.035974
  17 C :   -0.035971
  18 C :    0.028747
  19 C :    0.027873

-------------------------------
LOEWDIN REDUCED ORBITAL CHARGES
-------------------------------
  0 C s       :     2.885455  s :     2.885455
      pz      :     0.989198  p :     2.967311
      px      :     1.006840
      py      :     0.971273
      dz2     :     0.024455  d :     0.119355
      dxz     :     0.029301
      dyz     :     0.018982
      dx2y2   :     0.019502
      dxy     :     0.027116
  1 C s       :     2.882693  s :     2.882693
      pz      :     1.014895  p :     2.983626
      px      :     0.962363
      py      :     1.006368
      dz2     :     0.033708  d :     0.119284
      dxz     :     0.018018
      dyz     :     0.023272
      dx2y2   :     0.025717
      dxy     :     0.018569
  2 C s       :     2.882693  s :     2.882693
      pz      :     1.014895  p :     2.983625
      px      :     0.962362
      py      :     1.006368
      dz2     :     0.033708  d :     0.119284
      dxz     :     0.018018
      dyz     :     0.023272
      dx2y2   :     0.025717
      dxy     :     0.018569
  3 C s       :     2.885455  s :     2.885455
      pz      :     0.989197  p :     2.967310
      px      :     1.006840
      py      :     0.971273
      dz2     :     0.024455  d :     0.119355
      dxz     :     0.029301
      dyz     :     0.018982
      dx2y2   :     0.019502
      dxy     :     0.027116
  4 C s       :     2.887383  s :     2.887383
      pz      :     0.982216  p :     3.033698
      px      :     1.024370
      py      :     1.027111
      dz2     :     0.022816  d :     0.113220
      dxz     :     0.033346
      dyz     :     0.017049
      dx2y2   :     0.012746
      dxy     :     0.027262
  5 C s       :     2.887930  s :     2.887930
      pz      :     0.981040  p :     3.034874
      px      :     1.051288
      py      :     1.002546
      dz2     :     0.022770  d :     0.113001
      dxz     :     0.015467
      dyz     :     0.034849
      dx2y2   :     0.022333
      dxy     :     0.017582
  6 C s       :     2.886044  s :     2.886044
      pz      :     0.988523  p :     2.966130
      px      :     0.963255
      py      :     1.014351
      dz2     :     0.024405  d :     0.119073
      dxz     :     0.018066
      dyz     :     0.030063
      dx2y2   :     0.028271
      dxy     :     0.018267
  7 C s       :     2.889180  s :     2.889180
      pz      :     1.040202  p :     3.034635
      px      :     1.007251
      py      :     0.987182
      dz2     :     0.013387  d :     0.112153
      dxz     :     0.026502
      dyz     :     0.017652
      dx2y2   :     0.024576
      dxy     :     0.030035
  8 C s       :     2.889180  s :     2.889180
      pz      :     1.040203  p :     3.034636
      px      :     1.007250
      py      :     0.987183
      dz2     :     0.013387  d :     0.112153
      dxz     :     0.026503
      dyz     :     0.017652
      dx2y2   :     0.024576
      dxy     :     0.030035
  9 C s       :     2.886045  s :     2.886045
      pz      :     0.988524  p :     2.966133
      px      :     0.963257
      py      :     1.014351
      dz2     :     0.024405  d :     0.119072
      dxz     :     0.018066
      dyz     :     0.030063
      dx2y2   :     0.028271
      dxy     :     0.018267
 10 C s       :     2.887928  s :     2.887928
      pz      :     0.981041  p :     3.034877
      px      :     1.051288
      py      :     1.002548
      dz2     :     0.022770  d :     0.113002
      dxz     :     0.015467
      dyz     :     0.034849
      dx2y2   :     0.022333
      dxy     :     0.017582
 11 C s       :     2.887384  s :     2.887384
      pz      :     0.982217  p :     3.033701
      px      :     1.024371
      py      :     1.027113
      dz2     :     0.022817  d :     0.113220
      dxz     :     0.033346
      dyz     :     0.017049
      dx2y2   :     0.012746
      dxy     :     0.027262
 12 C s       :     2.885456  s :     2.885456
      pz      :     0.989199  p :     2.967312
      px      :     1.006840
      py      :     0.971273
      dz2     :     0.024455  d :     0.119355
      dxz     :     0.029301
      dyz     :     0.018981
      dx2y2   :     0.019502
      dxy     :     0.027115
 13 C s       :     2.882694  s :     2.882694
      pz      :     1.014895  p :     2.983626
      px      :     0.962363
      py      :     1.006368
      dz2     :     0.033708  d :     0.119284
      dxz     :     0.018018
      dyz     :     0.023272
      dx2y2   :     0.025717
      dxy     :     0.018569
 14 C s       :     2.882694  s :     2.882694
      pz      :     1.014895  p :     2.983630
      px      :     0.962366
      py      :     1.006368
      dz2     :     0.033708  d :     0.119284
      dxz     :     0.018018
      dyz     :     0.023272
      dx2y2   :     0.025717
      dxy     :     0.018569
 15 C s       :     2.886046  s :     2.886046
      pz      :     0.988522  p :     2.966129
      px      :     0.963256
      py      :     1.014351
      dz2     :     0.024405  d :     0.119072
      dxz     :     0.018066
      dyz     :     0.030063
      dx2y2   :     0.028271
      dxy     :     0.018267
 16 C s       :     2.889180  s :     2.889180
      pz      :     1.040207  p :     3.034641
      px      :     1.007251
      py      :     0.987183
      dz2     :     0.013387  d :     0.112153
      dxz     :     0.026503
      dyz     :     0.017652
      dx2y2   :     0.024576
      dxy     :     0.030035
 17 C s       :     2.889180  s :     2.889180
      pz      :     1.040204  p :     3.034638
      px      :     1.007250
      py      :     0.987184
      dz2     :     0.013387  d :     0.112153
      dxz     :     0.026503
      dyz     :     0.017652
      dx2y2   :     0.024576
      dxy     :     0.030035
 18 C s       :     2.886045  s :     2.886045
      pz      :     0.988526  p :     2.966136
      px      :     0.963258
      py      :     1.014352
      dz2     :     0.024405  d :     0.119073
      dxz     :     0.018066
      dyz     :     0.030063
      dx2y2   :     0.028271
      dxy     :     0.018267
 19 C s       :     2.885454  s :     2.885454
      pz      :     0.989199  p :     2.967317
      px      :     1.006842
      py      :     0.971276
      dz2     :     0.024455  d :     0.119355
      dxz     :     0.029301
      dyz     :     0.018982
      dx2y2   :     0.019502
      dxy     :     0.027116


                      *****************************
                      * MAYER POPULATION ANALYSIS *
                      *****************************

  NA   - Mulliken gross atomic population
  ZA   - Total nuclear charge
  QA   - Mulliken gross atomic charge
  VA   - Mayer's total valence
  BVA  - Mayer's bonded valence
  FA   - Mayer's free valence

  ATOM       NA         ZA         QA         VA         BVA        FA
  0 C      6.0611     6.0000    -0.0611     4.0348     4.0348    -0.0000
  1 C      5.9521     6.0000     0.0479     3.9716     3.9716    -0.0000
  2 C      5.9521     6.0000     0.0479     3.9716     3.9716    -0.0000
  3 C      6.0611     6.0000    -0.0611     4.0348     4.0348     0.0000
  4 C      5.9776     6.0000     0.0224     3.8557     3.8557     0.0000
  5 C      5.9823     6.0000     0.0177     3.8503     3.8503     0.0000
  6 C      6.0520     6.0000    -0.0520     4.0267     4.0267     0.0000
  7 C      5.9549     6.0000     0.0451     3.8339     3.8339     0.0000
  8 C      5.9549     6.0000     0.0451     3.8339     3.8339    -0.0000
  9 C      6.0520     6.0000    -0.0520     4.0267     4.0267    -0.0000
 10 C      5.9822     6.0000     0.0178     3.8503     3.8503    -0.0000
 11 C      5.9776     6.0000     0.0224     3.8558     3.8558    -0.0000
 12 C      6.0611     6.0000    -0.0611     4.0347     4.0347    -0.0000
 13 C      5.9521     6.0000     0.0479     3.9716     3.9716    -0.0000
 14 C      5.9521     6.0000     0.0479     3.9716     3.9716    -0.0000
 15 C      6.0520     6.0000    -0.0520     4.0267     4.0267    -0.0000
 16 C      5.9549     6.0000     0.0451     3.8339     3.8339    -0.0000
 17 C      5.9549     6.0000     0.0451     3.8339     3.8339     0.0000
 18 C      6.0520     6.0000    -0.0520     4.0267     4.0267     0.0000
 19 C      6.0611     6.0000    -0.0611     4.0347     4.0347     0.0000

  Mayer bond orders larger than 0.1
B(  0-C ,  1-C ) :   1.2452 B(  0-C ,  4-C ) :   1.1748 B(  0-C , 16-C ) :   1.2982 
B(  1-C ,  2-C ) :   1.2714 B(  1-C , 18-C ) :   1.2421 B(  2-C ,  3-C ) :   1.2453 
B(  2-C ,  9-C ) :   1.2421 B(  3-C ,  4-C ) :   1.1748 B(  3-C ,  7-C ) :   1.2982 
B(  4-C ,  5-C ) :   1.4227 B(  5-C ,  6-C ) :   1.1737 B(  5-C , 15-C ) :   1.1737 
B(  6-C ,  7-C ) :   1.2987 B(  6-C , 13-C ) :   1.2421 B(  7-C ,  8-C ) :   1.1626 
B(  8-C ,  9-C ) :   1.2987 B(  8-C , 12-C ) :   1.2982 B(  9-C , 10-C ) :   1.1737 
B( 10-C , 11-C ) :   1.4227 B( 10-C , 18-C ) :   1.1737 B( 11-C , 12-C ) :   1.1748 
B( 11-C , 19-C ) :   1.1748 B( 12-C , 13-C ) :   1.2452 B( 13-C , 14-C ) :   1.2714 
B( 14-C , 15-C ) :   1.2421 B( 14-C , 19-C ) :   1.2452 B( 15-C , 16-C ) :   1.2987 
B( 16-C , 17-C ) :   1.1626 B( 17-C , 18-C ) :   1.2987 B( 17-C , 19-C ) :   1.2982 


-------
TIMINGS
-------

Total SCF time: 0 days 0 hours 0 min 22 sec 

Total time                  ....      22.266 sec
Sum of individual times     ....      19.297 sec  ( 86.7%)

Fock matrix formation       ....      16.927 sec  ( 76.0%)
  Coulomb formation         ....      12.815 sec  ( 75.7% of F)
  Split-RI-J                ....       2.847 sec  ( 16.8% of F)
  Chain of spheres X        ....       9.829 sec  ( 58.1% of F)
  COS-X 1 center corr.      ....       0.000 sec  (  0.0% of F)
  XC integration            ....       3.227 sec  ( 19.1% of F)
    Basis function eval.    ....       0.233 sec  (  7.2% of XC)
    Density eval.           ....       0.231 sec  (  7.2% of XC)
    XC-Functional eval.     ....       0.027 sec  (  0.9% of XC)
    XC-Potential eval.      ....       0.359 sec  ( 11.1% of XC)
Diagonalization             ....       0.029 sec  (  0.1%)
Density matrix formation    ....       0.198 sec  (  0.9%)
Population analysis         ....       0.076 sec  (  0.3%)
Initial guess               ....       0.146 sec  (  0.7%)
Orbital Transformation      ....       0.000 sec  (  0.0%)
Orbital Orthonormalization  ....       0.136 sec  (  0.6%)
DIIS solution               ....       0.007 sec  (  0.0%)
SOSCF solution              ....       0.247 sec  (  1.1%)
Grid generation             ....       1.667 sec  (  7.5%)
           ************************************************************
           *              Shut down parallel processing               *
           ************************************************************

Entering the calculation of the dispersion correction...

Checking the input atom types...

Done


-------------------------------------------------------------------------------
                          DFT DISPERSION CORRECTION                            
                                                                               
                                DFTD3 V2.1  Rev 6                               
                          USING Becke-Johnson damping                          
-------------------------------------------------------------------------------
The PBE0 functional is recognized
Active option DFTDOPT                   ...         4   

molecular C6(AA) [au] = 8425.059005 


            DFT-D V3
 parameters
 s6 scaling factor         :     1.0000 
 a1 scaling factor         :     0.4145 
 s8 scaling factor         :     1.2177 
 a2 scaling factor         :     4.8593 
 ad hoc parameters k1-k3   :    16.0000     1.3333    -4.0000 

 Edisp/kcal,au: -26.114635448190  -0.041616316154 
 E6   /kcal   : -15.154767037 
 E8   /kcal   : -10.959868412 
 % E8         :  41.968299474 

-------------------------   ----------------
Dispersion correction           -0.041616316
-------------------------   ----------------


-------------------------   --------------------
FINAL SINGLE POINT ENERGY      -760.126065765209
-------------------------   --------------------

                                *** OPTIMIZATION RUN DONE ***

                            ***************************************
                            *     ORCA property calculations      *
                            ***************************************

                                    ---------------------
                                    Active property flags
                                    ---------------------
   (+) Dipole Moment


------------------------------------------------------------------------------
                       ORCA ELECTRIC PROPERTIES CALCULATION
------------------------------------------------------------------------------

Dipole Moment Calculation                       ... on
Quadrupole Moment Calculation                   ... off
Polarizability Calculation                      ... off
GBWName                                         ... c20_fullerene.gbw
Electron density file                           ... c20_fullerene.scfp.tmp

-------------
DIPOLE MOMENT
-------------
                                X             Y             Z
Electronic contribution:      0.00001       0.00007       0.00007
Nuclear contribution   :     -0.00000      -0.00000       0.00000
                        -----------------------------------------
Total Dipole Moment    :      0.00001       0.00007       0.00007
                        -----------------------------------------
Magnitude (a.u.)       :      0.00009
Magnitude (Debye)      :      0.00024


Timings for individual modules:

Sum of individual times         ...      197.180 sec (=   3.286 min)
GTO integral calculation        ...       29.981 sec (=   0.500 min)  15.2 %
SCF iterations                  ...      119.876 sec (=   1.998 min)  60.8 %
SCF Gradient evaluation         ...       29.860 sec (=   0.498 min)  15.1 %
Geometry relaxation             ...       17.463 sec (=   0.291 min)   8.9 %
                             ****ORCA TERMINATED NORMALLY****
TOTAL RUN TIME: 0 days 0 hours 3 minutes 30 seconds 716 msec
