
                                 *****************
                                 * O   R   C   A *
                                 *****************

           --- An Ab Initio, DFT and Semiempirical electronic structure package ---

                  #######################################################
                  #                        -***-                        #
                  #  Department of molecular theory and spectroscopy    #
                  #              Directorship: Frank Neese              #
                  # Max Planck Institute for Chemical Energy Conversion #
                  #                  D-45470 Muelheim/Ruhr              #
                  #                       Germany                       #
                  #                                                     #
                  #                  All rights reserved                #
                  #                        -***-                        #
                  #######################################################


                         Program Version 3.0.2 -  RELEASE  -


 With contributions from (in alphabetic order):
   Ute Becker             : Parallelization
   Dmytro Bykov           : SCF Hessian
   Dmitry Ganyushin       : Spin-Orbit,Spin-Spin,Magnetic field MRCI
   Andreas Hansen         : Spin unrestricted coupled pair/coupled cluster methods
   Dimitrios Liakos       : Extrapolation schemes; parallel MDCI
   Robert Izsak           : Overlap fitted RIJCOSX, COSX-SCS-MP3
   Christian Kollmar      : KDIIS, OOCD, Brueckner-CCSD(T), CCSD density
   Simone Kossmann        : Meta GGA functionals, TD-DFT gradient, OOMP2, MP2 Hessian
   Taras Petrenko         : DFT Hessian,TD-DFT gradient, ASA and ECA modules, normal mode analysis, Resonance Raman, ABS, FL, XAS/XES, NRVS
   Christoph Reimann      : Effective Core Potentials
   Michael Roemelt        : Restricted open shell CIS
   Christoph Riplinger    : Improved optimizer, TS searches, QM/MM, DLPNO-CCSD
   Barbara Sandhoefer     : DKH picture change effects
   Igor Schapiro          : Molecular dynamics
   Kantharuban Sivalingam : CASSCF convergence, NEVPT2
   Boris Wezisla          : Elementary symmetry handling
   Frank Wennmohs         : Technical directorship


 We gratefully acknowledge several colleagues who have allowed us to
 interface, adapt or use parts of their codes:
   Stefan Grimme, W. Hujo, H. Kruse, T. Risthaus : VdW corrections, initial TS optimization,
                                                   DFT functionals, gCP
   Ed Valeev                                     : LibInt (2-el integral package), F12 methods
   Garnet Chan, S. Sharma, R. Olivares           : DMRG
   Ulf Ekstrom                                   : XCFun DFT Library
   Mihaly Kallay                                 : mrcc  (arbitrary order and MRCC methods)
   Andreas Klamt, Michael Diedenhofen            : otool_cosmo (COSMO solvation model)
   Frank Weinhold                                : gennbo (NPA and NBO analysis)
   Christopher J. Cramer and Donald G. Truhlar   : smd solvation model


 Your calculation uses the libint2 library for the computation of 2-el integrals
 For citations please refer to: http://libint.valeyev.net

 This ORCA versions uses:
   CBLAS   interface :  Fast vector & matrix operations
   LAPACKE interface :  Fast linear algebra routines
   SCALAPACK package :  Parallel linear algebra routines


Your calculation utilizes the basis: Ahlrichs-VDZ
Cite in your paper:
H - Kr: A. Schaefer, H. Horn and R. Ahlrichs, J. Chem. Phys. 97, 2571 (1992).

Your calculation utilizes the basis: Ahlrichs SVPalls1+f
Cite in your paper:
Rb - Xe: A. Schaefer, C. Huber and R. Ahlrichs, J. Chem. Phys. 100, 5829 (1994).

Your calculation utilizes empirical dispersion correction
Cite in your paper:
S.Grimme, S.Ehrlich, L.Goerigk, J Comput Chem, (2011), 32, 1456–1465 
S.Grimme, J.Antony, S.Ehrlich and H.Krieg, J.Chem.Phys., 132, (2010), 154104 
   

================================================================================
                                        WARNINGS
                       Please study these warnings very carefully!
================================================================================
Now building the actual basis set

WARNING: Geometry Optimization
  ===> : Switching off AutoStart
         For restart on a previous wavefunction, please use MOREAD


INFO   : the flag for use of LIBINT has been found!

================================================================================
                                       INPUT FILE
================================================================================
NAME = c60_fullerene.inp
|  1> % pal nprocs 64
|  2>     end
|  3> #Optimization of C60 Fullerene
|  4> ! PBE0 D3 RIJCOSX def2-svp def2-svp/J opt
|  5> 
|  6> *xyz 0 1
|  7>   C   0.00000001364911      1.22948583115968      3.30761242865476
|  8>   C   -1.16891880555305      0.38001492041762      3.30679821798599
|  9>   C   -0.72237819782601     -0.99400777097851      3.30668080861222
| 10>   C   0.72237801510009     -0.99400775349311      3.30668065390240
| 11>   C   1.16891878745112      0.38001487468085      3.30679833135115
| 12>   C   2.28963624784490      0.74406709361717      2.57802663397265
| 13>   C   3.01181907519458     -0.24998062837568      1.81820822233323
| 14>   C   2.58332913433771     -1.56749861395230      1.81778279819825
| 15>   C   1.41481061461941     -1.94737662192856      2.57748786562654
| 16>   C   0.69269992490265     -2.94226395309752      1.81837678597388
| 17>   C   -0.69270003938689     -2.94226394152864      1.81837684247356
| 18>   C   -1.41481062501282     -1.94737643162007      2.57748769874131
| 19>   C   -2.58332935980355     -1.56749858983784      1.81778293801681
| 20>   C   -3.01181908296333     -0.24998047619770      1.81820821780086
| 21>   C   -2.28963634296479      0.74406725649632      2.57802672425484
| 22>   C   -2.28997766590527      1.97289267668860      1.81842353040698
| 23>   C   -3.01268945280754      1.73871558340882      0.58953767828983
| 24>   C   -3.45860502264094      0.36429637309083      0.58916765218989
| 25>   C   -3.45860510602703     -0.36429632873452     -0.58916761838779
| 26>   C   -3.01268946678648     -1.73871550651718     -0.58953767261130
| 27>   C   -2.58418602494809     -2.32791180094723      0.58907186901405
| 28>   C   -1.41521402069412     -3.17701282974270      0.58912076816106
| 29>   C   -0.72245398682378     -3.40176216314998     -0.58942253511375
| 30>   C   0.72245385526569     -3.40176219878947     -0.58942255364510
| 31>   C   1.41521394444338     -3.17701277927504      0.58912070591265
| 32>   C   2.58418597441899     -2.32791197589450      0.58907179072051
| 33>   C   3.01268929286884     -1.73871549232509     -0.58953769920872
| 34>   C   3.45860503250854     -0.36429637841481     -0.58916765471466
| 35>   C   3.45860468762539      0.36429629772434      0.58916761110714
| 36>   C   3.01268934082798      1.73871547295984      0.58953764700872
| 37>   C   2.58418586397445      2.32791184532321     -0.58907180095334
| 38>   C   2.58332902451444      1.56749844189218     -1.81778278700681
| 39>   C   3.01181918091387      0.24998050888468     -1.81820822857732
| 40>   C   2.28963639610217     -0.74406721984559     -2.57802672991141
| 41>   C   2.28997767494227     -1.97289270146188     -1.81842372159101
| 42>   C   1.16909320874674     -2.78730071436448     -1.81832918217198
| 43>   C   0.00000004013700     -2.40778230685279     -2.57821473959590
| 44>   C   -1.16909321864378     -2.78730064755426     -1.81832924461655
| 45>   C   -2.28997766807800     -1.97289257773680     -1.81842349111148
| 46>   C   -2.28963642695471     -0.74406722574752     -2.57802677339253
| 47>   C   -3.01181928761042      0.24998054031029     -1.81820824220638
| 48>   C   -2.58332911677341      1.56749848812636     -1.81778273833230
| 49>   C   -2.58418615100843      2.32791206933357     -0.58907185650086
| 50>   C   -1.41521415572856      3.17701307154828     -0.58912069473664
| 51>   C   -0.69270007950254      2.94226398666910     -1.81837675638506
| 52>   C   -1.41481058779283      1.94737649292166     -2.57748764803977
| 53>   C   -0.72237808242578      0.99400774887328     -3.30668058629642
| 54>   C   -1.16891877043836     -0.38001493682608     -3.30679810868745
| 55>   C   0.00000002359154     -1.22948595386582     -3.30761259996593
| 56>   C   1.16891877614780     -0.38001499612594     -3.30679828494384
| 57>   C   0.72237811838686      0.99400771974105     -3.30668071436965
| 58>   C   1.41481047806832      1.94737654990058     -2.57748774019958
| 59>   C   0.69269986469317      2.94226393853150     -1.81837673264991
| 60>   C   1.41521388776297      3.17701281144533     -0.58912067376100
| 61>   C   0.72245386863565      3.40176221965624      0.58942263149634
| 62>   C   -0.72245398716735      3.40176225357517      0.58942265888516
| 63>   C   -1.16909324639111      2.78730079741302      1.81832933095901
| 64>   C   -0.00000002620076      2.40778237552554      2.57821488444785
| 65>   C   1.16909314794555      2.78730073821521      1.81832929319670
| 66>   C   2.28997750923857      1.97289253705130      1.81842358999010
| 67> 
| 68>   **                         ****END OF INPUT****
================================================================================

                       *****************************
                       * Geometry Optimization Run *
                       *****************************

Geometry optimization settings:
Update method            Update   .... BFGS
Choice of coordinates    CoordSys .... Redundant Internals
Initial Hessian          InHess   .... Almoef's Model

Convergence Tolerances:
Energy Change            TolE     ....  5.0000e-06 Eh
Max. Gradient            TolMAXG  ....  3.0000e-04 Eh/bohr
RMS Gradient             TolRMSG  ....  1.0000e-04 Eh/bohr
Max. Displacement        TolMAXD  ....  4.0000e-03 bohr
RMS Displacement         TolRMSD  ....  2.0000e-03 bohr

------------------------------------------------------------------------------
                        ORCA OPTIMIZATION COORDINATE SETUP
------------------------------------------------------------------------------

The optimization will be done in new redundant internal coordinates
Making redundant internal coordinates   ...  (new redundants) done
Evaluating the initial hessian          ...  (Almloef) done
Evaluating the coordinates              ...  done
Calculating the B-matrix                .... done
Calculating the G-matrix                .... done
Diagonalizing the G-matrix              .... done
The first mode is                       ....  456
The number of degrees of freedom        ....  174

    -----------------------------------------------------------------
                    Redundant Internal Coordinates


    -----------------------------------------------------------------
         Definition                    Initial Value    Approx d2E/dq
    -----------------------------------------------------------------
      1. B(C   1,C   0)                  1.4450         0.510527   
      2. B(C   2,C   1)                  1.4448         0.510939   
      3. B(C   3,C   2)                  1.4448         0.510950   
      4. B(C   4,C   3)                  1.4448         0.510940   
      5. B(C   4,C   0)                  1.4450         0.510527   
      6. B(C   5,C   4)                  1.3855         0.635178   
      7. B(C   6,C   5)                  1.4446         0.511156   
      8. B(C   7,C   6)                  1.3854         0.635340   
      9. B(C   8,C   7)                  1.4446         0.511227   
     10. B(C   8,C   3)                  1.3857         0.634801   
     11. B(C   9,C   8)                  1.4448         0.510837   
     12. B(C  10,C   9)                  1.3854         0.635444   
     13. B(C  11,C  10)                  1.4448         0.510837   
     14. B(C  11,C   2)                  1.3857         0.634801   
     15. B(C  12,C  11)                  1.4446         0.511227   
     16. B(C  13,C  12)                  1.3854         0.635340   
     17. B(C  14,C  13)                  1.4446         0.511156   
     18. B(C  14,C   1)                  1.3855         0.635178   
     19. B(C  15,C  14)                  1.4446         0.511153   
     20. B(C  16,C  15)                  1.4448         0.510956   
     21. B(C  17,C  16)                  1.4449         0.510594   
     22. B(C  17,C  13)                  1.4448         0.510837   
     23. B(C  18,C  17)                  1.3854         0.635454   
     24. B(C  19,C  18)                  1.4449         0.510594   
     25. B(C  20,C  19)                  1.3856         0.634977   
     26. B(C  20,C  12)                  1.4450         0.510535   
     27. B(C  21,C  20)                  1.4448         0.510854   
     28. B(C  21,C  10)                  1.4451         0.510377   
     29. B(C  22,C  21)                  1.3854         0.635394   
     30. B(C  23,C  22)                  1.4449         0.510666   
     31. B(C  24,C   9)                  1.4451         0.510377   
     32. B(C  24,C  23)                  1.3854         0.635394   
     33. B(C  25,C  24)                  1.4448         0.510854   
     34. B(C  25,C   7)                  1.4450         0.510535   
     35. B(C  26,C  25)                  1.3856         0.634977   
     36. B(C  27,C  26)                  1.4449         0.510594   
     37. B(C  28,C  27)                  1.3854         0.635454   
     38. B(C  28,C   6)                  1.4448         0.510837   
     39. B(C  29,C  28)                  1.4449         0.510594   
     40. B(C  30,C  29)                  1.3856         0.634977   
     41. B(C  31,C  30)                  1.4450         0.510535   
     42. B(C  32,C  31)                  1.3854         0.635340   
     43. B(C  32,C  27)                  1.4448         0.510837   
     44. B(C  33,C  32)                  1.4446         0.511156   
     45. B(C  34,C  33)                  1.4446         0.511153   
     46. B(C  34,C  26)                  1.4448         0.510956   
     47. B(C  35,C  34)                  1.3855         0.635184   
     48. B(C  35,C  23)                  1.4447         0.510989   
     49. B(C  36,C  35)                  1.4451         0.510354   
     50. B(C  37,C  36)                  1.4451         0.510354   
     51. B(C  37,C  22)                  1.4447         0.510989   
     52. B(C  38,C  37)                  1.3855         0.635184   
     53. B(C  38,C  19)                  1.4448         0.510956   
     54. B(C  39,C  38)                  1.4446         0.511153   
     55. B(C  40,C  39)                  1.4446         0.511156   
     56. B(C  40,C  18)                  1.4448         0.510837   
     57. B(C  41,C  40)                  1.3854         0.635340   
     58. B(C  42,C  41)                  1.4450         0.510535   
     59. B(C  42,C  16)                  1.3856         0.634977   
     60. B(C  43,C  42)                  1.4448         0.510854   
     61. B(C  44,C  43)                  1.4451         0.510376   
     62. B(C  45,C  44)                  1.4448         0.510837   
     63. B(C  45,C  41)                  1.4446         0.511227   
     64. B(C  46,C  45)                  1.3857         0.634801   
     65. B(C  47,C  46)                  1.4448         0.510939   
     66. B(C  47,C  39)                  1.3855         0.635178   
     67. B(C  48,C  47)                  1.4450         0.510527   
     68. B(C  48,C  36)                  1.3858         0.634543   
     69. B(C  49,C  48)                  1.4450         0.510527   
     70. B(C  49,C  33)                  1.3855         0.635178   
     71. B(C  50,C  49)                  1.4448         0.510939   
     72. B(C  50,C  46)                  1.4448         0.510950   
     73. B(C  51,C  50)                  1.3857         0.634801   
     74. B(C  51,C  31)                  1.4446         0.511227   
     75. B(C  52,C  51)                  1.4448         0.510837   
     76. B(C  52,C  44)                  1.3854         0.635445   
     77. B(C  53,C  52)                  1.4451         0.510377   
     78. B(C  53,C  30)                  1.4448         0.510854   
     79. B(C  54,C  53)                  1.3854         0.635394   
     80. B(C  55,C  54)                  1.4449         0.510666   
     81. B(C  55,C  43)                  1.3854         0.635394   
     82. B(C  56,C  55)                  1.4447         0.510989   
     83. B(C  56,C  15)                  1.3855         0.635184   
     84. B(C  57,C  56)                  1.4451         0.510354   
     85. B(C  57,C   0)                  1.3858         0.634543   
     86. B(C  58,C  57)                  1.4451         0.510354   
     87. B(C  58,C  54)                  1.4447         0.510989   
     88. B(C  59,C  58)                  1.3855         0.635184   
     89. B(C  59,C  29)                  1.4448         0.510956   
     90. B(C  59,C   5)                  1.4446         0.511153   
     91. A(C   1,C   0,C   4)          107.9870         0.405016   
     92. A(C   4,C   0,C  57)          119.9708         0.420959   
     93. A(C   1,C   0,C  57)          119.9708         0.420959   
     94. A(C   0,C   1,C  14)          120.0115         0.421034   
     95. A(C   0,C   1,C   2)          108.0029         0.405073   
     96. A(C   2,C   1,C  14)          119.9903         0.421095   
     97. A(C   1,C   2,C  11)          119.9951         0.421050   
     98. A(C   3,C   2,C  11)          119.9806         0.421052   
     99. A(C   1,C   2,C   3)          108.0035         0.405133   
    100. A(C   2,C   3,C   8)          119.9807         0.421052   
    101. A(C   2,C   3,C   4)          108.0035         0.405133   
    102. A(C   4,C   3,C   8)          119.9951         0.421050   
    103. A(C   3,C   4,C   5)          119.9903         0.421095   
    104. A(C   0,C   4,C   5)          120.0115         0.421034   
    105. A(C   0,C   4,C   3)          108.0029         0.405073   
    106. A(C   4,C   5,C   6)          120.0140         0.421127   
    107. A(C   6,C   5,C  59)          107.9764         0.405191   
    108. A(C   4,C   5,C  59)          120.0174         0.421126   
    109. A(C   5,C   6,C   7)          119.9938         0.421146   
    110. A(C   5,C   6,C  28)          108.0258         0.405147   
    111. A(C   7,C   6,C  28)          119.9797         0.421099   
    112. A(C   8,C   7,C  25)          108.0157         0.405115   
    113. A(C   6,C   7,C  25)          120.0346         0.421054   
    114. A(C   6,C   7,C   8)          120.0052         0.421156   
    115. A(C   7,C   8,C   9)          108.0016         0.405157   
    116. A(C   3,C   8,C   9)          120.0329         0.421035   
    117. A(C   3,C   8,C   7)          120.0016         0.421093   
    118. A(C  10,C   9,C  24)          119.9992         0.421044   
    119. A(C   8,C   9,C  24)          107.9935         0.405038   
    120. A(C   8,C   9,C  10)          119.9864         0.421111   
    121. A(C   9,C  10,C  21)          119.9992         0.421044   
    122. A(C  11,C  10,C  21)          107.9935         0.405038   
    123. A(C   9,C  10,C  11)          119.9864         0.421111   
    124. A(C  10,C  11,C  12)          108.0016         0.405157   
    125. A(C   2,C  11,C  12)          120.0016         0.421093   
    126. A(C   2,C  11,C  10)          120.0329         0.421035   
    127. A(C  13,C  12,C  20)          120.0346         0.421054   
    128. A(C  11,C  12,C  20)          108.0157         0.405115   
    129. A(C  11,C  12,C  13)          120.0052         0.421156   
    130. A(C  12,C  13,C  17)          119.9797         0.421099   
    131. A(C  14,C  13,C  17)          108.0258         0.405147   
    132. A(C  12,C  13,C  14)          119.9938         0.421146   
    133. A(C   1,C  14,C  15)          120.0174         0.421126   
    134. A(C   1,C  14,C  13)          120.0140         0.421127   
    135. A(C  13,C  14,C  15)          107.9764         0.405191   
    136. A(C  14,C  15,C  16)          108.0283         0.405163   
    137. A(C  16,C  15,C  56)          119.9939         0.421098   
    138. A(C  14,C  15,C  56)          119.9890         0.421127   
    139. A(C  15,C  16,C  17)          107.9850         0.405085   
    140. A(C  17,C  16,C  42)          119.9797         0.421020   
    141. A(C  15,C  16,C  42)          119.9931         0.421074   
    142. A(C  13,C  17,C  16)          107.9845         0.405069   
    143. A(C  16,C  17,C  18)          120.0303         0.421077   
    144. A(C  13,C  17,C  18)          119.9948         0.421113   
    145. A(C  17,C  18,C  40)          119.9948         0.421113   
    146. A(C  19,C  18,C  40)          107.9845         0.405069   
    147. A(C  17,C  18,C  19)          120.0303         0.421077   
    148. A(C  20,C  19,C  38)          119.9931         0.421074   
    149. A(C  18,C  19,C  38)          107.9850         0.405085   
    150. A(C  18,C  19,C  20)          119.9797         0.421020   
    151. A(C  19,C  20,C  21)          120.0096         0.421059   
    152. A(C  12,C  20,C  21)          107.9846         0.405063   
    153. A(C  12,C  20,C  19)          119.9810         0.421012   
    154. A(C  20,C  21,C  22)          119.9921         0.421108   
    155. A(C  10,C  21,C  22)          119.9984         0.421038   
    156. A(C  10,C  21,C  20)          108.0045         0.405040   
    157. A(C  21,C  22,C  23)          120.0024         0.421080   
    158. A(C  23,C  22,C  37)          108.0080         0.405100   
    159. A(C  21,C  22,C  37)          120.0007         0.421128   
    160. A(C  22,C  23,C  24)          120.0024         0.421080   
    161. A(C  24,C  23,C  35)          120.0007         0.421128   
    162. A(C  22,C  23,C  35)          108.0080         0.405100   
    163. A(C  23,C  24,C  25)          119.9921         0.421108   
    164. A(C   9,C  24,C  25)          108.0045         0.405040   
    165. A(C   9,C  24,C  23)          119.9984         0.421038   
    166. A(C  24,C  25,C  26)          120.0096         0.421059   
    167. A(C   7,C  25,C  26)          119.9810         0.421012   
    168. A(C   7,C  25,C  24)          107.9846         0.405063   
    169. A(C  25,C  26,C  27)          119.9797         0.421020   
    170. A(C  27,C  26,C  34)          107.9850         0.405085   
    171. A(C  25,C  26,C  34)          119.9931         0.421074   
    172. A(C  28,C  27,C  32)          119.9948         0.421113   
    173. A(C  26,C  27,C  32)          107.9845         0.405069   
    174. A(C  26,C  27,C  28)          120.0303         0.421077   
    175. A(C  27,C  28,C  29)          120.0303         0.421077   
    176. A(C   6,C  28,C  29)          107.9845         0.405069   
    177. A(C   6,C  28,C  27)          119.9948         0.421113   
    178. A(C  28,C  29,C  59)          107.9850         0.405085   
    179. A(C  30,C  29,C  59)          119.9931         0.421074   
    180. A(C  28,C  29,C  30)          119.9797         0.421020   
    181. A(C  29,C  30,C  53)          120.0096         0.421059   
    182. A(C  31,C  30,C  53)          107.9846         0.405063   
    183. A(C  29,C  30,C  31)          119.9810         0.421012   
    184. A(C  30,C  31,C  32)          120.0346         0.421054   
    185. A(C  32,C  31,C  51)          120.0052         0.421156   
    186. A(C  30,C  31,C  51)          108.0157         0.405115   
    187. A(C  31,C  32,C  33)          119.9938         0.421146   
    188. A(C  27,C  32,C  33)          108.0258         0.405147   
    189. A(C  27,C  32,C  31)          119.9797         0.421099   
    190. A(C  34,C  33,C  49)          120.0174         0.421126   
    191. A(C  32,C  33,C  49)          120.0140         0.421127   
    192. A(C  32,C  33,C  34)          107.9764         0.405191   
    193. A(C  33,C  34,C  35)          119.9890         0.421127   
    194. A(C  26,C  34,C  35)          119.9939         0.421098   
    195. A(C  26,C  34,C  33)          108.0283         0.405163   
    196. A(C  34,C  35,C  36)          120.0060         0.421009   
    197. A(C  23,C  35,C  36)          107.9918         0.405056   
    198. A(C  23,C  35,C  34)          120.0106         0.421103   
    199. A(C  37,C  36,C  48)          120.0054         0.420934   
    200. A(C  35,C  36,C  48)          120.0054         0.420934   
    201. A(C  35,C  36,C  37)          108.0005         0.404967   
    202. A(C  36,C  37,C  38)          120.0060         0.421009   
    203. A(C  22,C  37,C  38)          120.0106         0.421103   
    204. A(C  22,C  37,C  36)          107.9918         0.405056   
    205. A(C  37,C  38,C  39)          119.9890         0.421127   
    206. A(C  19,C  38,C  39)          108.0283         0.405163   
    207. A(C  19,C  38,C  37)          119.9939         0.421098   
    208. A(C  40,C  39,C  47)          120.0140         0.421127   
    209. A(C  38,C  39,C  47)          120.0174         0.421126   
    210. A(C  38,C  39,C  40)          107.9764         0.405191   
    211. A(C  39,C  40,C  41)          119.9938         0.421146   
    212. A(C  18,C  40,C  41)          119.9797         0.421099   
    213. A(C  18,C  40,C  39)          108.0258         0.405147   
    214. A(C  42,C  41,C  45)          108.0157         0.405115   
    215. A(C  40,C  41,C  45)          120.0052         0.421156   
    216. A(C  40,C  41,C  42)          120.0346         0.421054   
    217. A(C  41,C  42,C  43)          107.9846         0.405063   
    218. A(C  16,C  42,C  43)          120.0096         0.421059   
    219. A(C  16,C  42,C  41)          119.9810         0.421012   
    220. A(C  42,C  43,C  44)          108.0045         0.405040   
    221. A(C  44,C  43,C  55)          119.9984         0.421038   
    222. A(C  42,C  43,C  55)          119.9921         0.421108   
    223. A(C  43,C  44,C  45)          107.9935         0.405038   
    224. A(C  45,C  44,C  52)          119.9864         0.421111   
    225. A(C  43,C  44,C  52)          119.9992         0.421044   
    226. A(C  44,C  45,C  46)          120.0329         0.421035   
    227. A(C  41,C  45,C  46)          120.0016         0.421093   
    228. A(C  41,C  45,C  44)          108.0016         0.405157   
    229. A(C  45,C  46,C  47)          119.9951         0.421050   
    230. A(C  47,C  46,C  50)          108.0035         0.405133   
    231. A(C  45,C  46,C  50)          119.9807         0.421052   
    232. A(C  46,C  47,C  48)          108.0029         0.405073   
    233. A(C  39,C  47,C  48)          120.0115         0.421034   
    234. A(C  39,C  47,C  46)          119.9903         0.421095   
    235. A(C  36,C  48,C  47)          119.9708         0.420959   
    236. A(C  47,C  48,C  49)          107.9870         0.405016   
    237. A(C  36,C  48,C  49)          119.9708         0.420959   
    238. A(C  48,C  49,C  50)          108.0029         0.405073   
    239. A(C  33,C  49,C  50)          119.9903         0.421095   
    240. A(C  33,C  49,C  48)          120.0115         0.421034   
    241. A(C  49,C  50,C  51)          119.9951         0.421050   
    242. A(C  46,C  50,C  51)          119.9806         0.421052   
    243. A(C  46,C  50,C  49)          108.0035         0.405133   
    244. A(C  50,C  51,C  52)          120.0329         0.421035   
    245. A(C  31,C  51,C  52)          108.0016         0.405157   
    246. A(C  31,C  51,C  50)          120.0016         0.421093   
    247. A(C  51,C  52,C  53)          107.9935         0.405038   
    248. A(C  44,C  52,C  53)          119.9992         0.421044   
    249. A(C  44,C  52,C  51)          119.9864         0.421111   
    250. A(C  52,C  53,C  54)          119.9984         0.421038   
    251. A(C  30,C  53,C  54)          119.9921         0.421108   
    252. A(C  30,C  53,C  52)          108.0045         0.405040   
    253. A(C  55,C  54,C  58)          108.0080         0.405100   
    254. A(C  53,C  54,C  58)          120.0007         0.421128   
    255. A(C  53,C  54,C  55)          120.0024         0.421080   
    256. A(C  54,C  55,C  56)          108.0080         0.405100   
    257. A(C  43,C  55,C  56)          120.0007         0.421128   
    258. A(C  43,C  55,C  54)          120.0024         0.421080   
    259. A(C  55,C  56,C  57)          107.9918         0.405056   
    260. A(C  15,C  56,C  57)          120.0060         0.421009   
    261. A(C  15,C  56,C  55)          120.0106         0.421103   
    262. A(C  56,C  57,C  58)          108.0005         0.404967   
    263. A(C   0,C  57,C  58)          120.0053         0.420934   
    264. A(C   0,C  57,C  56)          120.0054         0.420934   
    265. A(C  57,C  58,C  59)          120.0060         0.421009   
    266. A(C  54,C  58,C  59)          120.0106         0.421103   
    267. A(C  54,C  58,C  57)          107.9918         0.405056   
    268. A(C  29,C  59,C  58)          119.9939         0.421098   
    269. A(C   5,C  59,C  58)          119.9890         0.421127   
    270. A(C   5,C  59,C  29)          108.0283         0.405163   
    271. D(C   2,C   1,C   0,C  57)    142.5668         0.017763   
    272. D(C  14,C   1,C   0,C  57)     -0.0580         0.017763   
    273. D(C   2,C   1,C   0,C   4)      0.0500         0.017763   
    274. D(C  14,C   1,C   0,C   4)   -142.5748         0.017763   
    275. D(C  11,C   2,C   1,C   0)   -142.6185         0.017792   
    276. D(C  11,C   2,C   1,C  14)      0.0156         0.017792   
    277. D(C   3,C   2,C   1,C   0)     -0.0309         0.017792   
    278. D(C   3,C   2,C   1,C  14)    142.6032         0.017792   
    279. D(C   4,C   3,C   2,C   1)      0.0000         0.017793   
    280. D(C   8,C   3,C   2,C   1)   -142.5940         0.017793   
    281. D(C   4,C   3,C   2,C  11)    142.5940         0.017793   
    282. D(C   8,C   3,C   2,C  11)     -0.0000         0.017793   
    283. D(C   3,C   4,C   0,C   1)     -0.0500         0.017763   
    284. D(C   5,C   4,C   0,C   1)    142.5747         0.017763   
    285. D(C   5,C   4,C   3,C   2)   -142.6032         0.017792   
    286. D(C   5,C   4,C   0,C  57)      0.0580         0.017763   
    287. D(C   0,C   4,C   3,C   2)      0.0309         0.017792   
    288. D(C   0,C   4,C   3,C   8)    142.6186         0.017792   
    289. D(C   5,C   4,C   3,C   8)     -0.0155         0.017792   
    290. D(C   3,C   4,C   0,C  57)   -142.5668         0.017763   
    291. D(C   6,C   5,C   4,C   0)   -138.2057         0.028003   
    292. D(C  59,C   5,C   4,C   3)    138.1846         0.028003   
    293. D(C   6,C   5,C   4,C   3)     -0.0077         0.028003   
    294. D(C  59,C   5,C   4,C   0)     -0.0134         0.028003   
    295. D(C  28,C   6,C   5,C   4)    142.6430         0.017807   
    296. D(C   7,C   6,C   5,C  59)   -142.6102         0.017807   
    297. D(C  28,C   6,C   5,C  59)      0.0046         0.017807   
    298. D(C   7,C   6,C   5,C   4)      0.0281         0.017807   
    299. D(C  25,C   7,C   6,C   5)    138.2546         0.028018   
    300. D(C   8,C   7,C   6,C   5)     -0.0252         0.028018   
    301. D(C   8,C   7,C   6,C  28)   -138.2238         0.028018   
    302. D(C  25,C   7,C   6,C  28)      0.0561         0.028018   
    303. D(C   9,C   8,C   7,C   6)    142.6861         0.017812   
    304. D(C   9,C   8,C   7,C  25)     -0.0249         0.017812   
    305. D(C   9,C   8,C   3,C   4)   -138.2266         0.027968   
    306. D(C   3,C   8,C   7,C  25)   -142.7089         0.017812   
    307. D(C   3,C   8,C   7,C   6)      0.0020         0.017812   
    308. D(C   9,C   8,C   3,C   2)     -0.0668         0.027968   
    309. D(C   7,C   8,C   3,C   4)      0.0184         0.027968   
    310. D(C   7,C   8,C   3,C   2)    138.1782         0.027968   
    311. D(C  24,C   9,C   8,C   7)     -0.0086         0.017785   
    312. D(C  10,C   9,C   8,C   3)      0.0669         0.017785   
    313. D(C  10,C   9,C   8,C   7)   -142.6034         0.017785   
    314. D(C  24,C   9,C   8,C   3)    142.6616         0.017785   
    315. D(C  21,C  10,C   9,C   8)    138.1556         0.028028   
    316. D(C  21,C  10,C   9,C  24)      0.0000         0.028028   
    317. D(C  11,C  10,C   9,C  24)   -138.1556         0.028028   
    318. D(C  11,C  10,C   9,C   8)      0.0000         0.028028   
    319. D(C  12,C  11,C  10,C  21)      0.0086         0.017785   
    320. D(C   2,C  11,C  10,C  21)   -142.6616         0.017785   
    321. D(C   2,C  11,C  10,C   9)     -0.0669         0.017785   
    322. D(C  12,C  11,C   2,C   3)   -138.1782         0.027968   
    323. D(C  12,C  11,C   2,C   1)     -0.0185         0.027968   
    324. D(C  12,C  11,C  10,C   9)    142.6034         0.017785   
    325. D(C  10,C  11,C   2,C   3)      0.0669         0.027968   
    326. D(C  10,C  11,C   2,C   1)    138.2266         0.027968   
    327. D(C  20,C  12,C  11,C  10)      0.0249         0.017812   
    328. D(C  13,C  12,C  11,C  10)   -142.6861         0.017812   
    329. D(C  20,C  12,C  11,C   2)    142.7089         0.017812   
    330. D(C  13,C  12,C  11,C   2)     -0.0020         0.017812   
    331. D(C  17,C  13,C  12,C  11)    138.2238         0.028018   
    332. D(C  14,C  13,C  12,C  20)   -138.2546         0.028018   
    333. D(C  14,C  13,C  12,C  11)      0.0252         0.028018   
    334. D(C  17,C  13,C  12,C  20)     -0.0560         0.028018   
    335. D(C  15,C  14,C  13,C  17)     -0.0046         0.017807   
    336. D(C  15,C  14,C  13,C  12)    142.6102         0.017807   
    337. D(C   1,C  14,C  13,C  17)   -142.6430         0.017807   
    338. D(C   1,C  14,C  13,C  12)     -0.0281         0.017807   
    339. D(C  15,C  14,C   1,C   0)      0.0134         0.028003   
    340. D(C  15,C  14,C   1,C   2)   -138.1846         0.028003   
    341. D(C  13,C  14,C   1,C   2)      0.0076         0.028003   
    342. D(C  13,C  14,C   1,C   0)    138.2057         0.028003   
    343. D(C  56,C  15,C  14,C   1)      0.0234         0.017807   
    344. D(C  56,C  15,C  14,C  13)   -142.6134         0.017807   
    345. D(C  16,C  15,C  14,C  13)      0.0234         0.017807   
    346. D(C  16,C  15,C  14,C   1)    142.6602         0.017807   
    347. D(C  42,C  16,C  15,C  56)      0.0435         0.017793   
    348. D(C  17,C  16,C  15,C  56)    142.6014         0.017793   
    349. D(C  17,C  16,C  15,C  14)     -0.0332         0.017793   
    350. D(C  42,C  16,C  15,C  14)   -142.5911         0.017793   
    351. D(C  18,C  17,C  16,C  42)     -0.0372         0.017768   
    352. D(C  18,C  17,C  13,C  14)    142.6311         0.017785   
    353. D(C  13,C  17,C  16,C  42)    142.5941         0.017768   
    354. D(C  18,C  17,C  16,C  15)   -142.6010         0.017768   
    355. D(C  13,C  17,C  16,C  15)      0.0303         0.017768   
    356. D(C  18,C  17,C  13,C  12)      0.0100         0.017785   
    357. D(C  16,C  17,C  13,C  14)     -0.0159         0.017785   
    358. D(C  16,C  17,C  13,C  12)   -142.6370         0.017785   
    359. D(C  40,C  18,C  17,C  16)      0.0368         0.028029   
    360. D(C  40,C  18,C  17,C  13)   -138.1613         0.028029   
    361. D(C  19,C  18,C  17,C  16)    138.2349         0.028029   
    362. D(C  19,C  18,C  17,C  13)      0.0368         0.028029   
    363. D(C  38,C  19,C  18,C  40)      0.0304         0.017768   
    364. D(C  38,C  19,C  18,C  17)   -142.6010         0.017768   
    365. D(C  20,C  19,C  18,C  40)    142.5941         0.017768   
    366. D(C  20,C  19,C  18,C  17)     -0.0372         0.017768   
    367. D(C  21,C  20,C  19,C  38)     -0.0350         0.027984   
    368. D(C  21,C  20,C  19,C  18)   -138.1550         0.027984   
    369. D(C  12,C  20,C  19,C  38)    138.1112         0.027984   
    370. D(C  12,C  20,C  19,C  18)     -0.0088         0.027984   
    371. D(C  21,C  20,C  12,C  13)    142.6492         0.017763   
    372. D(C  21,C  20,C  12,C  11)     -0.0489         0.017763   
    373. D(C  19,C  20,C  12,C  13)      0.0556         0.017763   
    374. D(C  19,C  20,C  12,C  11)   -142.6424         0.017763   
    375. D(C  22,C  21,C  20,C  19)      0.0192         0.017786   
    376. D(C  22,C  21,C  20,C  12)   -142.5617         0.017786   
    377. D(C  10,C  21,C  20,C  19)    142.6351         0.017786   
    378. D(C  10,C  21,C  20,C  12)      0.0542         0.017786   
    379. D(C  22,C  21,C  10,C  11)    142.5743         0.017752   
    380. D(C  22,C  21,C  10,C   9)     -0.0148         0.017752   
    381. D(C  20,C  21,C  10,C  11)     -0.0388         0.017752   
    382. D(C  20,C  21,C  10,C   9)   -142.6279         0.017752   
    383. D(C  37,C  22,C  21,C  20)     -0.0108         0.028023   
    384. D(C  37,C  22,C  21,C  10)   -138.1947         0.028023   
    385. D(C  23,C  22,C  21,C  20)    138.1987         0.028023   
    386. D(C  23,C  22,C  21,C  10)      0.0148         0.028023   
    387. D(C  35,C  23,C  22,C  37)      0.0000         0.017773   
    388. D(C  35,C  23,C  22,C  21)   -142.6379         0.017773   
    389. D(C  24,C  23,C  22,C  37)    142.6379         0.017773   
    390. D(C  24,C  23,C  22,C  21)     -0.0000         0.017773   
    391. D(C   9,C  24,C  23,C  35)    138.1948         0.028023   
    392. D(C   9,C  24,C  23,C  22)     -0.0148         0.028023   
    393. D(C  25,C  24,C   9,C  10)    142.6279         0.017752   
    394. D(C  25,C  24,C   9,C   8)      0.0388         0.017752   
    395. D(C  23,C  24,C   9,C  10)      0.0148         0.017752   
    396. D(C  25,C  24,C  23,C  22)   -138.1987         0.028023   
    397. D(C  23,C  24,C   9,C   8)   -142.5743         0.017752   
    398. D(C  25,C  24,C  23,C  35)      0.0108         0.028023   
    399. D(C  26,C  25,C  24,C  23)     -0.0192         0.017786   
    400. D(C  26,C  25,C  24,C   9)   -142.6351         0.017786   
    401. D(C   7,C  25,C  24,C  23)    142.5617         0.017786   
    402. D(C   7,C  25,C  24,C   9)     -0.0542         0.017786   
    403. D(C  26,C  25,C   7,C   8)    142.6424         0.017763   
    404. D(C  26,C  25,C   7,C   6)     -0.0556         0.017763   
    405. D(C  24,C  25,C   7,C   8)      0.0489         0.017763   
    406. D(C  24,C  25,C   7,C   6)   -142.6492         0.017763   
    407. D(C  34,C  26,C  25,C  24)      0.0350         0.027984   
    408. D(C  34,C  26,C  25,C   7)   -138.1112         0.027984   
    409. D(C  27,C  26,C  25,C  24)    138.1550         0.027984   
    410. D(C  27,C  26,C  25,C   7)      0.0088         0.027984   
    411. D(C  32,C  27,C  26,C  34)     -0.0303         0.017768   
    412. D(C  32,C  27,C  26,C  25)   -142.5941         0.017768   
    413. D(C  28,C  27,C  26,C  34)    142.6010         0.017768   
    414. D(C  28,C  27,C  26,C  25)      0.0372         0.017768   
    415. D(C  29,C  28,C  27,C  32)     -0.0368         0.028029   
    416. D(C  29,C  28,C  27,C  26)   -138.2349         0.028029   
    417. D(C   6,C  28,C  27,C  32)    138.1613         0.028029   
    418. D(C   6,C  28,C  27,C  26)     -0.0368         0.028029   
    419. D(C  29,C  28,C   6,C   7)    142.6370         0.017785   
    420. D(C  29,C  28,C   6,C   5)      0.0159         0.017785   
    421. D(C  27,C  28,C   6,C   7)     -0.0101         0.017785   
    422. D(C  27,C  28,C   6,C   5)   -142.6311         0.017785   
    423. D(C  59,C  29,C  28,C  27)    142.6010         0.017768   
    424. D(C  59,C  29,C  28,C   6)     -0.0304         0.017768   
    425. D(C  30,C  29,C  28,C  27)      0.0373         0.017768   
    426. D(C  30,C  29,C  28,C   6)   -142.5941         0.017768   
    427. D(C  53,C  30,C  29,C  59)      0.0350         0.027984   
    428. D(C  53,C  30,C  29,C  28)    138.1550         0.027984   
    429. D(C  31,C  30,C  29,C  59)   -138.1112         0.027984   
    430. D(C  31,C  30,C  29,C  28)      0.0088         0.027984   
    431. D(C  51,C  31,C  30,C  53)      0.0489         0.017763   
    432. D(C  51,C  31,C  30,C  29)    142.6425         0.017763   
    433. D(C  32,C  31,C  30,C  53)   -142.6492         0.017763   
    434. D(C  32,C  31,C  30,C  29)     -0.0556         0.017763   
    435. D(C  33,C  32,C  31,C  51)     -0.0252         0.028018   
    436. D(C  33,C  32,C  31,C  30)    138.2546         0.028018   
    437. D(C  27,C  32,C  31,C  51)   -138.2238         0.028018   
    438. D(C  27,C  32,C  31,C  30)      0.0561         0.028018   
    439. D(C  33,C  32,C  27,C  28)   -142.6311         0.017785   
    440. D(C  33,C  32,C  27,C  26)      0.0159         0.017785   
    441. D(C  31,C  32,C  27,C  28)     -0.0100         0.017785   
    442. D(C  31,C  32,C  27,C  26)    142.6370         0.017785   
    443. D(C  49,C  33,C  32,C  31)      0.0281         0.017807   
    444. D(C  49,C  33,C  32,C  27)    142.6430         0.017807   
    445. D(C  34,C  33,C  32,C  31)   -142.6102         0.017807   
    446. D(C  34,C  33,C  32,C  27)      0.0046         0.017807   
    447. D(C  35,C  34,C  33,C  49)     -0.0235         0.017807   
    448. D(C  35,C  34,C  33,C  32)    142.6134         0.017807   
    449. D(C  26,C  34,C  33,C  49)   -142.6602         0.017807   
    450. D(C  26,C  34,C  33,C  32)     -0.0234         0.017807   
    451. D(C  35,C  34,C  26,C  27)   -142.6014         0.017793   
    452. D(C  35,C  34,C  26,C  25)     -0.0435         0.017793   
    453. D(C  33,C  34,C  26,C  27)      0.0332         0.017793   
    454. D(C  33,C  34,C  26,C  25)    142.5911         0.017793   
    455. D(C  36,C  35,C  34,C  33)      0.0166         0.028004   
    456. D(C  36,C  35,C  34,C  26)    138.2342         0.028004   
    457. D(C  23,C  35,C  34,C  33)   -138.1825         0.028004   
    458. D(C  23,C  35,C  34,C  26)      0.0351         0.028004   
    459. D(C  36,C  35,C  23,C  24)   -142.6546         0.017796   
    460. D(C  36,C  35,C  23,C  22)     -0.0160         0.017796   
    461. D(C  34,C  35,C  23,C  24)     -0.0193         0.017796   
    462. D(C  34,C  35,C  23,C  22)    142.6193         0.017796   
    463. D(C  48,C  36,C  35,C  34)      0.0281         0.017751   
    464. D(C  48,C  36,C  35,C  23)    142.6654         0.017751   
    465. D(C  37,C  36,C  35,C  34)   -142.6114         0.017751   
    466. D(C  37,C  36,C  35,C  23)      0.0259         0.017751   
    467. D(C  38,C  37,C  36,C  48)     -0.0281         0.017751   
    468. D(C  38,C  37,C  36,C  35)    142.6114         0.017751   
    469. D(C  22,C  37,C  36,C  48)   -142.6654         0.017751   
    470. D(C  22,C  37,C  36,C  35)     -0.0259         0.017751   
    471. D(C  38,C  37,C  22,C  23)   -142.6193         0.017796   
    472. D(C  38,C  37,C  22,C  21)      0.0194         0.017796   
    473. D(C  36,C  37,C  22,C  23)      0.0160         0.017796   
    474. D(C  36,C  37,C  22,C  21)    142.6546         0.017796   
    475. D(C  39,C  38,C  37,C  36)     -0.0165         0.028004   
    476. D(C  39,C  38,C  37,C  22)    138.1825         0.028004   
    477. D(C  19,C  38,C  37,C  36)   -138.2342         0.028004   
    478. D(C  19,C  38,C  37,C  22)     -0.0351         0.028004   
    479. D(C  39,C  38,C  19,C  20)   -142.5911         0.017793   
    480. D(C  39,C  38,C  19,C  18)     -0.0332         0.017793   
    481. D(C  37,C  38,C  19,C  20)      0.0435         0.017793   
    482. D(C  37,C  38,C  19,C  18)    142.6014         0.017793   
    483. D(C  47,C  39,C  38,C  37)      0.0234         0.017807   
    484. D(C  47,C  39,C  38,C  19)    142.6602         0.017807   
    485. D(C  40,C  39,C  38,C  37)   -142.6134         0.017807   
    486. D(C  40,C  39,C  38,C  19)      0.0234         0.017807   
    487. D(C  41,C  40,C  39,C  47)     -0.0281         0.017807   
    488. D(C  41,C  40,C  39,C  38)    142.6102         0.017807   
    489. D(C  18,C  40,C  39,C  47)   -142.6430         0.017807   
    490. D(C  18,C  40,C  39,C  38)     -0.0046         0.017807   
    491. D(C  41,C  40,C  18,C  19)   -142.6370         0.017785   
    492. D(C  41,C  40,C  18,C  17)      0.0100         0.017785   
    493. D(C  39,C  40,C  18,C  19)     -0.0159         0.017785   
    494. D(C  39,C  40,C  18,C  17)    142.6311         0.017785   
    495. D(C  45,C  41,C  40,C  39)      0.0252         0.028018   
    496. D(C  45,C  41,C  40,C  18)    138.2238         0.028018   
    497. D(C  42,C  41,C  40,C  39)   -138.2546         0.028018   
    498. D(C  42,C  41,C  40,C  18)     -0.0561         0.028018   
    499. D(C  43,C  42,C  41,C  45)     -0.0489         0.017763   
    500. D(C  43,C  42,C  41,C  40)    142.6492         0.017763   
    501. D(C  16,C  42,C  41,C  45)   -142.6424         0.017763   
    502. D(C  16,C  42,C  41,C  40)      0.0556         0.017763   
    503. D(C  43,C  42,C  16,C  17)   -138.1550         0.027984   
    504. D(C  43,C  42,C  16,C  15)     -0.0350         0.027984   
    505. D(C  41,C  42,C  16,C  17)     -0.0088         0.027984   
    506. D(C  41,C  42,C  16,C  15)    138.1112         0.027984   
    507. D(C  55,C  43,C  42,C  41)   -142.5617         0.017786   
    508. D(C  55,C  43,C  42,C  16)      0.0192         0.017786   
    509. D(C  44,C  43,C  42,C  41)      0.0542         0.017786   
    510. D(C  44,C  43,C  42,C  16)    142.6351         0.017786   
    511. D(C  52,C  44,C  43,C  55)     -0.0148         0.017752   
    512. D(C  52,C  44,C  43,C  42)   -142.6279         0.017752   
    513. D(C  45,C  44,C  43,C  55)    142.5743         0.017752   
    514. D(C  45,C  44,C  43,C  42)     -0.0388         0.017752   
    515. D(C  46,C  45,C  44,C  52)     -0.0669         0.017785   
    516. D(C  46,C  45,C  44,C  43)   -142.6616         0.017785   
    517. D(C  41,C  45,C  44,C  52)    142.6033         0.017785   
    518. D(C  41,C  45,C  44,C  43)      0.0086         0.017785   
    519. D(C  46,C  45,C  41,C  42)    142.7089         0.017812   
    520. D(C  46,C  45,C  41,C  40)     -0.0020         0.017812   
    521. D(C  44,C  45,C  41,C  42)      0.0249         0.017812   
    522. D(C  44,C  45,C  41,C  40)   -142.6861         0.017812   
    523. D(C  50,C  46,C  45,C  41)   -138.1782         0.027968   
    524. D(C  47,C  46,C  45,C  44)    138.2266         0.027968   
    525. D(C  47,C  46,C  45,C  41)     -0.0185         0.027968   
    526. D(C  50,C  46,C  45,C  44)      0.0669         0.027968   
    527. D(C  48,C  47,C  46,C  50)     -0.0309         0.017792   
    528. D(C  48,C  47,C  46,C  45)   -142.6186         0.017792   
    529. D(C  39,C  47,C  46,C  50)    142.6032         0.017792   
    530. D(C  39,C  47,C  46,C  45)      0.0156         0.017792   
    531. D(C  48,C  47,C  39,C  40)    138.2057         0.028003   
    532. D(C  48,C  47,C  39,C  38)      0.0134         0.028003   
    533. D(C  46,C  47,C  39,C  40)      0.0076         0.028003   
    534. D(C  46,C  47,C  39,C  38)   -138.1846         0.028003   
    535. D(C  49,C  48,C  47,C  46)      0.0500         0.017763   
    536. D(C  49,C  48,C  47,C  39)   -142.5748         0.017763   
    537. D(C  36,C  48,C  47,C  46)    142.5668         0.017763   
    538. D(C  36,C  48,C  47,C  39)     -0.0580         0.017763   
    539. D(C  49,C  48,C  36,C  37)    138.1419         0.027944   
    540. D(C  49,C  48,C  36,C  35)     -0.0649         0.027944   
    541. D(C  47,C  48,C  36,C  37)      0.0649         0.027944   
    542. D(C  47,C  48,C  36,C  35)   -138.1419         0.027944   
    543. D(C  50,C  49,C  48,C  47)     -0.0500         0.017763   
    544. D(C  50,C  49,C  48,C  36)   -142.5668         0.017763   
    545. D(C  33,C  49,C  48,C  47)    142.5747         0.017763   
    546. D(C  33,C  49,C  48,C  36)      0.0580         0.017763   
    547. D(C  50,C  49,C  33,C  34)    138.1846         0.028003   
    548. D(C  50,C  49,C  33,C  32)     -0.0076         0.028003   
    549. D(C  48,C  49,C  33,C  34)     -0.0134         0.028003   
    550. D(C  48,C  49,C  33,C  32)   -138.2057         0.028003   
    551. D(C  51,C  50,C  49,C  48)    142.6185         0.017792   
    552. D(C  51,C  50,C  49,C  33)     -0.0156         0.017792   
    553. D(C  46,C  50,C  49,C  48)      0.0309         0.017792   
    554. D(C  46,C  50,C  49,C  33)   -142.6032         0.017792   
    555. D(C  51,C  50,C  46,C  47)   -142.5940         0.017793   
    556. D(C  51,C  50,C  46,C  45)      0.0000         0.017793   
    557. D(C  49,C  50,C  46,C  47)     -0.0000         0.017793   
    558. D(C  49,C  50,C  46,C  45)    142.5940         0.017793   
    559. D(C  52,C  51,C  50,C  49)   -138.2266         0.027968   
    560. D(C  52,C  51,C  50,C  46)     -0.0669         0.027968   
    561. D(C  31,C  51,C  50,C  49)      0.0185         0.027968   
    562. D(C  31,C  51,C  50,C  46)    138.1782         0.027968   
    563. D(C  52,C  51,C  31,C  32)    142.6861         0.017812   
    564. D(C  52,C  51,C  31,C  30)     -0.0249         0.017812   
    565. D(C  50,C  51,C  31,C  32)      0.0020         0.017812   
    566. D(C  50,C  51,C  31,C  30)   -142.7089         0.017812   
    567. D(C  53,C  52,C  51,C  50)    142.6616         0.017785   
    568. D(C  53,C  52,C  51,C  31)     -0.0086         0.017785   
    569. D(C  44,C  52,C  51,C  50)      0.0669         0.017785   
    570. D(C  44,C  52,C  51,C  31)   -142.6033         0.017785   
    571. D(C  53,C  52,C  44,C  45)   -138.1556         0.028028   
    572. D(C  53,C  52,C  44,C  43)      0.0000         0.028028   
    573. D(C  51,C  52,C  44,C  45)      0.0000         0.028028   
    574. D(C  51,C  52,C  44,C  43)    138.1556         0.028028   
    575. D(C  54,C  53,C  52,C  51)   -142.5743         0.017752   
    576. D(C  54,C  53,C  52,C  44)      0.0148         0.017752   
    577. D(C  30,C  53,C  52,C  51)      0.0388         0.017752   
    578. D(C  30,C  53,C  52,C  44)    142.6279         0.017752   
    579. D(C  54,C  53,C  30,C  31)    142.5617         0.017786   
    580. D(C  54,C  53,C  30,C  29)     -0.0192         0.017786   
    581. D(C  52,C  53,C  30,C  31)     -0.0542         0.017786   
    582. D(C  52,C  53,C  30,C  29)   -142.6351         0.017786   
    583. D(C  58,C  54,C  53,C  52)    138.1948         0.028023   
    584. D(C  58,C  54,C  53,C  30)      0.0108         0.028023   
    585. D(C  55,C  54,C  53,C  52)     -0.0148         0.028023   
    586. D(C  55,C  54,C  53,C  30)   -138.1987         0.028023   
    587. D(C  56,C  55,C  54,C  58)      0.0000         0.017773   
    588. D(C  56,C  55,C  54,C  53)    142.6379         0.017773   
    589. D(C  43,C  55,C  54,C  58)   -142.6379         0.017773   
    590. D(C  43,C  55,C  54,C  53)     -0.0000         0.017773   
    591. D(C  56,C  55,C  43,C  44)   -138.1947         0.028023   
    592. D(C  56,C  55,C  43,C  42)     -0.0108         0.028023   
    593. D(C  54,C  55,C  43,C  44)      0.0148         0.028023   
    594. D(C  54,C  55,C  43,C  42)    138.1987         0.028023   
    595. D(C  57,C  56,C  55,C  54)      0.0160         0.017796   
    596. D(C  57,C  56,C  55,C  43)    142.6547         0.017796   
    597. D(C  15,C  56,C  55,C  54)   -142.6193         0.017796   
    598. D(C  15,C  56,C  55,C  43)      0.0194         0.017796   
    599. D(C  57,C  56,C  15,C  16)   -138.2342         0.028004   
    600. D(C  57,C  56,C  15,C  14)     -0.0165         0.028004   
    601. D(C  55,C  56,C  15,C  16)     -0.0352         0.028004   
    602. D(C  55,C  56,C  15,C  14)    138.1825         0.028004   
    603. D(C  58,C  57,C  56,C  55)     -0.0259         0.017751   
    604. D(C  58,C  57,C  56,C  15)    142.6114         0.017751   
    605. D(C   0,C  57,C  56,C  55)   -142.6654         0.017751   
    606. D(C   0,C  57,C  56,C  15)     -0.0281         0.017751   
    607. D(C  58,C  57,C   0,C   4)     -0.0649         0.027944   
    608. D(C  58,C  57,C   0,C   1)   -138.1419         0.027944   
    609. D(C  56,C  57,C   0,C   4)    138.1419         0.027944   
    610. D(C  56,C  57,C   0,C   1)      0.0649         0.027944   
    611. D(C  59,C  58,C  57,C  56)   -142.6114         0.017751   
    612. D(C  59,C  58,C  57,C   0)      0.0281         0.017751   
    613. D(C  54,C  58,C  57,C  56)      0.0259         0.017751   
    614. D(C  54,C  58,C  57,C   0)    142.6654         0.017751   
    615. D(C  59,C  58,C  54,C  55)    142.6193         0.017796   
    616. D(C  59,C  58,C  54,C  53)     -0.0194         0.017796   
    617. D(C  57,C  58,C  54,C  55)     -0.0160         0.017796   
    618. D(C  57,C  58,C  54,C  53)   -142.6546         0.017796   
    619. D(C  29,C  59,C  58,C  57)    138.2342         0.028004   
    620. D(C   5,C  59,C  58,C  57)      0.0165         0.028004   
    621. D(C   5,C  59,C  58,C  54)   -138.1825         0.028004   
    622. D(C  58,C  59,C  29,C  30)     -0.0435         0.017793   
    623. D(C  58,C  59,C  29,C  28)   -142.6014         0.017793   
    624. D(C   5,C  59,C  29,C  30)    142.5911         0.017793   
    625. D(C   5,C  59,C  29,C  28)      0.0332         0.017793   
    626. D(C  58,C  59,C   5,C   6)    142.6134         0.017807   
    627. D(C  58,C  59,C   5,C   4)     -0.0235         0.017807   
    628. D(C  29,C  59,C  58,C  54)      0.0352         0.028004   
    629. D(C  29,C  59,C   5,C   6)     -0.0234         0.017807   
    630. D(C  29,C  59,C   5,C   4)   -142.6602         0.017807   
    -----------------------------------------------------------------

Number of atoms                         .... 60
Number of degrees of freedom            .... 630

         *************************************************************
         *                GEOMETRY OPTIMIZATION CYCLE   1            *
         *************************************************************
---------------------------------
CARTESIAN COORDINATES (ANGSTROEM)
---------------------------------
  C      0.000000    1.229486    3.307612
  C     -1.168919    0.380015    3.306798
  C     -0.722378   -0.994008    3.306681
  C      0.722378   -0.994008    3.306681
  C      1.168919    0.380015    3.306798
  C      2.289636    0.744067    2.578027
  C      3.011819   -0.249981    1.818208
  C      2.583329   -1.567499    1.817783
  C      1.414811   -1.947377    2.577488
  C      0.692700   -2.942264    1.818377
  C     -0.692700   -2.942264    1.818377
  C     -1.414811   -1.947376    2.577488
  C     -2.583329   -1.567499    1.817783
  C     -3.011819   -0.249980    1.818208
  C     -2.289636    0.744067    2.578027
  C     -2.289978    1.972893    1.818424
  C     -3.012689    1.738716    0.589538
  C     -3.458605    0.364296    0.589168
  C     -3.458605   -0.364296   -0.589168
  C     -3.012689   -1.738716   -0.589538
  C     -2.584186   -2.327912    0.589072
  C     -1.415214   -3.177013    0.589121
  C     -0.722454   -3.401762   -0.589423
  C      0.722454   -3.401762   -0.589423
  C      1.415214   -3.177013    0.589121
  C      2.584186   -2.327912    0.589072
  C      3.012689   -1.738715   -0.589538
  C      3.458605   -0.364296   -0.589168
  C      3.458605    0.364296    0.589168
  C      3.012689    1.738715    0.589538
  C      2.584186    2.327912   -0.589072
  C      2.583329    1.567498   -1.817783
  C      3.011819    0.249981   -1.818208
  C      2.289636   -0.744067   -2.578027
  C      2.289978   -1.972893   -1.818424
  C      1.169093   -2.787301   -1.818329
  C      0.000000   -2.407782   -2.578215
  C     -1.169093   -2.787301   -1.818329
  C     -2.289978   -1.972893   -1.818423
  C     -2.289636   -0.744067   -2.578027
  C     -3.011819    0.249981   -1.818208
  C     -2.583329    1.567498   -1.817783
  C     -2.584186    2.327912   -0.589072
  C     -1.415214    3.177013   -0.589121
  C     -0.692700    2.942264   -1.818377
  C     -1.414811    1.947376   -2.577488
  C     -0.722378    0.994008   -3.306681
  C     -1.168919   -0.380015   -3.306798
  C      0.000000   -1.229486   -3.307613
  C      1.168919   -0.380015   -3.306798
  C      0.722378    0.994008   -3.306681
  C      1.414810    1.947377   -2.577488
  C      0.692700    2.942264   -1.818377
  C      1.415214    3.177013   -0.589121
  C      0.722454    3.401762    0.589423
  C     -0.722454    3.401762    0.589423
  C     -1.169093    2.787301    1.818329
  C     -0.000000    2.407782    2.578215
  C      1.169093    2.787301    1.818329
  C      2.289978    1.972893    1.818424

----------------------------
CARTESIAN COORDINATES (A.U.)
----------------------------
  NO LB      ZA    FRAG    MASS        X           Y           Z
   0 C     6.0000    0    12.011          0.000000025793080          2.323391506428339          6.250481647311641
   1 C     6.0000    0    12.011         -2.208936415285613          0.718124126393181          6.248943012132349
   2 C     6.0000    0    12.011         -1.365096959006747         -1.878402462138901          6.248721140570368
   3 C     6.0000    0    12.011          1.365096613704801         -1.878402429096283          6.248720848211178
   4 C     6.0000    0    12.011          2.208936381077922          0.718124039963212          6.248943226361455
   5 C     6.0000    0    12.011          4.326785454725903          1.406083032199197          4.871764304163153
   6 C     6.0000    0    12.011          5.691513217037733         -0.472394926415579          3.435915594653606
   7 C     6.0000    0    12.011          4.881784577678134         -2.962143095671000          3.435111659547734
   8 C     6.0000    0    12.011          2.673604592995487         -3.680008495045684          4.870746179539379
   9 C     6.0000    0    12.011          1.309013151053826         -5.560073085062836          3.436234133770571
  10 C     6.0000    0    12.011         -1.309013367397686         -5.560073063200821          3.436234240539493
  11 C     6.0000    0    12.011         -2.673604612636186         -3.680008135414758          4.870745864171999
  12 C     6.0000    0    12.011         -4.881785003746825         -2.962143050101275          3.435111923766521
  13 C     6.0000    0    12.011         -5.691513231718544         -0.472394638840873          3.435915586088668
  14 C     6.0000    0    12.011         -4.326785634476446          1.406083339996183          4.871764474771767
  15 C     6.0000    0    12.011         -4.327430641357178          3.728226850560298          3.436322467947416
  16 C     6.0000    0    12.011         -5.693157992359324          3.285696277423783          1.114064757595551
  17 C     6.0000    0    12.011         -6.535816298195887          0.688420376722468          1.113365509604261
  18 C     6.0000    0    12.011         -6.535816455772760         -0.688420292901190         -1.113365445727550
  19 C     6.0000    0    12.011         -5.693158018775692         -3.285696132119641         -1.114064746864684
  20 C     6.0000    0    12.011         -4.883403866258481         -4.399115767713668          1.113184505633687
  21 C     6.0000    0    12.011         -2.674366919997449         -6.003684172167888          1.113276911629718
  22 C     6.0000    0    12.011         -1.365240179456497         -6.428398861089006         -1.113847168526570
  23 C     6.0000    0    12.011          1.365239930847736         -6.428398928437882         -1.113847203545746
  24 C     6.0000    0    12.011          2.674366775904434         -6.003684076797832          1.113276793997271
  25 C     6.0000    0    12.011          4.883403770772321         -4.399116098316096          1.113184357680338
  26 C     6.0000    0    12.011          5.693157690118982         -3.285696105300478         -1.114064797126524
  27 C     6.0000    0    12.011          6.535816316842948         -0.688420386783332         -1.113365514375385
  28 C     6.0000    0    12.011          6.535815665108247          0.688420234300442          1.113365431969115
  29 C     6.0000    0    12.011          5.693157780748622          3.285696068705459          1.114064698482820
  30 C     6.0000    0    12.011          4.883403562062387          4.399115851572116         -1.113184377017584
  31 C     6.0000    0    12.011          4.881784370142230          2.962142770524495         -3.435111638398977
  32 C     6.0000    0    12.011          5.691513416818238          0.472394700610313         -3.435915606453226
  33 C     6.0000    0    12.011          4.326785734891542         -1.406083270736341         -4.871764485461135
  34 C     6.0000    0    12.011          4.327430658434633         -3.728226897375013         -3.436322829232874
  35 C     6.0000    0    12.011          2.209265989558568         -5.267235003031932         -3.436144175622047
  36 C     6.0000    0    12.011          0.000000075847938         -4.550049150052915         -4.872119772275346
  37 C     6.0000    0    12.011         -2.209266008261263         -5.267234876778913         -3.436144293625183
  38 C     6.0000    0    12.011         -4.327430645463042         -3.728226663568496         -3.436322393689683
  39 C     6.0000    0    12.011         -4.326785793194393         -1.406083281889372         -4.871764567628544
  40 C     6.0000    0    12.011         -5.691513618445497          0.472394759996110         -3.435915632208417
  41 C     6.0000    0    12.011         -4.881784544486417          2.962142857894433         -3.435111546417483
  42 C     6.0000    0    12.011         -4.883404104478000          4.399116274890348         -1.113184481987185
  43 C     6.0000    0    12.011         -2.674367175175560          6.003684629114212         -1.113276772877672
  44 C     6.0000    0    12.011         -1.309013443205278          5.560073148503927         -3.436234077855805
  45 C     6.0000    0    12.011         -2.673604542300598          3.680008251257974         -4.870745768359974
  46 C     6.0000    0    12.011         -1.365096740931917          1.878402420366070         -6.248720720454392
  47 C     6.0000    0    12.011         -2.208936348928465         -0.718124157400677         -6.248942805588041
  48 C     6.0000    0    12.011          0.000000044581550         -2.323391738309339         -6.250481971042836
  49 C     6.0000    0    12.011          2.208936359717743         -0.718124269461172         -6.248943138664349
  50 C     6.0000    0    12.011          1.365096808888509          1.878402365314133         -6.248720962477722
  51 C     6.0000    0    12.011          2.673604334951324          3.680008358932529         -4.870745942516776
  52 C     6.0000    0    12.011          1.309013037274398          5.560073057537047         -3.436234033002872
  53 C     6.0000    0    12.011          2.674366668793982          6.003684137590870         -1.113276733239458
  54 C     6.0000    0    12.011          1.365239956113299          6.428398967870362          1.113847350663269
  55 C     6.0000    0    12.011         -1.365240180105750          6.428399031967850          1.113847402420638
  56 C     6.0000    0    12.011         -2.209266060696117          5.267235159970928          3.436144456788786
  57 C     6.0000    0    12.011         -0.000000049512261          4.550049279825606          4.872120046005862
  58 C     6.0000    0    12.011          2.209265874660970          5.267235048103280          3.436144385428362
  59 C     6.0000    0    12.011          4.327430345300020          3.728226586684043          3.436322580543195

--------------------------------
INTERNAL COORDINATES (ANGSTROEM)
--------------------------------
 C      0   0   0   0.000000     0.000     0.000
 C      1   0   0   1.444982     0.000     0.000
 C      2   1   0   1.444762   108.003     0.000
 C      3   2   1   1.444756   108.004   359.969
 C      4   3   2   1.444762   108.004     0.000
 C      5   4   3   1.385514   119.990   217.397
 C      6   5   4   1.444646   120.014     0.000
 C      7   6   5   1.385445   119.994     0.028
 C      4   3   2   1.385676   119.981   217.406
 C      9   4   3   1.444816   120.033   359.933
 C     10   9   4   1.385400   119.986     0.067
 C      3   2   1   1.385676   119.995   217.381
 C     12   3   2   1.444609   120.002     0.000
 C     13  12   3   1.385445   120.005     0.000
 C      2   1   3   1.385514   120.011   217.375
 C     15   2   1   1.444648   120.017     0.000
 C     16  15   2   1.444753   108.028   142.660
 C     14  13  12   1.444816   119.980   138.224
 C     18  14  13   1.385396   119.995     0.000
 C     19  18  14   1.444946   120.030     0.037
 C     20  19  18   1.385600   119.980   359.963
 C     21  20  19   1.444807   120.010   221.845
 C     22  21  20   1.385422   119.992     0.000
 C     23  22  21   1.444908   120.002   138.199
 C     24  23  22   1.385422   120.002     0.000
 C     25  24  23   1.444807   119.992   221.801
 C     26  25  24   1.385600   120.010     0.000
 C     27  26  25   1.444946   119.980   138.155
 C     28  27  26   1.385396   120.030     0.037
 C     29  28  27   1.444946   120.030   221.765
 C     30  29  28   1.385600   119.980     0.037
 C     31  30  29   1.444977   119.981     0.000
 C     32  31  30   1.385445   120.035   359.944
 C     33  32  31   1.444646   119.994   138.255
 C     34  33  32   1.444648   107.976   217.390
 C     35  34  33   1.385512   119.989   142.613
 C     36  35  34   1.445074   120.006     0.000
 C     23  22  21   1.444736   120.001     0.000
 C     38  23  22   1.385512   120.011     0.000
 C     39  38  23   1.444648   119.989   138.183
 C     40  39  38   1.444646   107.976   217.387
 C     41  40  39   1.385445   119.994   142.610
 C     17  16  15   1.385600   119.993   217.409
 C     43  17  16   1.444807   120.010   359.965
 C     44  43  17   1.445062   108.005   142.635
 C     42  41  40   1.444609   120.005     0.025
 C     46  42  41   1.385676   120.002     0.000
 C     40  39  38   1.385514   120.017     0.023
 C     37  36  35   1.385786   120.005     0.028
 C     34  33  32   1.385514   120.014     0.028
 C     47  46  42   1.444756   119.981   221.822
 C     51  47  46   1.385676   119.981     0.000
 C     45  44  43   1.385400   119.999   217.372
 C     31  30  29   1.444807   120.010   138.155
 C     54  31  30   1.385422   119.992     0.000
 C     44  43  17   1.385422   119.992     0.000
 C     16  15   2   1.385512   119.989     0.023
 C      1   2   3   1.385786   119.971   142.567
 C     55  54  31   1.444736   120.001     0.000
 C     59  55  54   1.385512   120.011     0.000

---------------------------
INTERNAL COORDINATES (A.U.)
---------------------------
 C      0   0   0   0.000000     0.000     0.000
 C      1   0   0   2.730620     0.000     0.000
 C      2   1   0   2.730204   108.003     0.000
 C      3   2   1   2.730194   108.004   359.969
 C      4   3   2   2.730204   108.004     0.000
 C      5   4   3   2.618243   119.990   217.397
 C      6   5   4   2.729986   120.014     0.000
 C      7   6   5   2.618111   119.994     0.028
 C      4   3   2   2.618548   119.981   217.406
 C      9   4   3   2.730307   120.033   359.933
 C     10   9   4   2.618027   119.986     0.067
 C      3   2   1   2.618548   119.995   217.381
 C     12   3   2   2.729915   120.002     0.000
 C     13  12   3   2.618111   120.005     0.000
 C      2   1   3   2.618243   120.011   217.375
 C     15   2   1   2.729990   120.017     0.000
 C     16  15   2   2.730188   108.028   142.660
 C     14  13  12   2.730307   119.980   138.224
 C     18  14  13   2.618019   119.995     0.000
 C     19  18  14   2.730552   120.030     0.037
 C     20  19  18   2.618405   119.980   359.963
 C     21  20  19   2.730290   120.010   221.845
 C     22  21  20   2.618067   119.992     0.000
 C     23  22  21   2.730480   120.002   138.199
 C     24  23  22   2.618067   120.002     0.000
 C     25  24  23   2.730290   119.992   221.801
 C     26  25  24   2.618405   120.010     0.000
 C     27  26  25   2.730552   119.980   138.155
 C     28  27  26   2.618018   120.030     0.037
 C     29  28  27   2.730552   120.030   221.765
 C     30  29  28   2.618405   119.980     0.037
 C     31  30  29   2.730612   119.981     0.000
 C     32  31  30   2.618111   120.035   359.944
 C     33  32  31   2.729986   119.994   138.255
 C     34  33  32   2.729990   107.976   217.390
 C     35  34  33   2.618237   119.989   142.613
 C     36  35  34   2.730794   120.006     0.000
 C     23  22  21   2.730155   120.001     0.000
 C     38  23  22   2.618238   120.011     0.000
 C     39  38  23   2.729990   119.989   138.183
 C     40  39  38   2.729986   107.976   217.387
 C     41  40  39   2.618111   119.994   142.610
 C     17  16  15   2.618405   119.993   217.409
 C     43  17  16   2.730290   120.010   359.965
 C     44  43  17   2.730771   108.005   142.635
 C     42  41  40   2.729915   120.005     0.025
 C     46  42  41   2.618548   120.002     0.000
 C     40  39  38   2.618243   120.017     0.023
 C     37  36  35   2.618756   120.005     0.028
 C     34  33  32   2.618243   120.014     0.028
 C     47  46  42   2.730194   119.981   221.822
 C     51  47  46   2.618548   119.981     0.000
 C     45  44  43   2.618026   119.999   217.372
 C     31  30  29   2.730290   120.010   138.155
 C     54  31  30   2.618067   119.992     0.000
 C     44  43  17   2.618068   119.992     0.000
 C     16  15   2   2.618238   119.989     0.023
 C      1   2   3   2.618756   119.971   142.567
 C     55  54  31   2.730155   120.001     0.000
 C     59  55  54   2.618238   120.011     0.000

---------------------
BASIS SET INFORMATION
---------------------
There are 1 groups of distinct atoms

 Group   1 Type C   : 7s4p1d contracted to 3s2p1d pattern {511/31/1}

Atom   0C    basis set group =>   1
Atom   1C    basis set group =>   1
Atom   2C    basis set group =>   1
Atom   3C    basis set group =>   1
Atom   4C    basis set group =>   1
Atom   5C    basis set group =>   1
Atom   6C    basis set group =>   1
Atom   7C    basis set group =>   1
Atom   8C    basis set group =>   1
Atom   9C    basis set group =>   1
Atom  10C    basis set group =>   1
Atom  11C    basis set group =>   1
Atom  12C    basis set group =>   1
Atom  13C    basis set group =>   1
Atom  14C    basis set group =>   1
Atom  15C    basis set group =>   1
Atom  16C    basis set group =>   1
Atom  17C    basis set group =>   1
Atom  18C    basis set group =>   1
Atom  19C    basis set group =>   1
Atom  20C    basis set group =>   1
Atom  21C    basis set group =>   1
Atom  22C    basis set group =>   1
Atom  23C    basis set group =>   1
Atom  24C    basis set group =>   1
Atom  25C    basis set group =>   1
Atom  26C    basis set group =>   1
Atom  27C    basis set group =>   1
Atom  28C    basis set group =>   1
Atom  29C    basis set group =>   1
Atom  30C    basis set group =>   1
Atom  31C    basis set group =>   1
Atom  32C    basis set group =>   1
Atom  33C    basis set group =>   1
Atom  34C    basis set group =>   1
Atom  35C    basis set group =>   1
Atom  36C    basis set group =>   1
Atom  37C    basis set group =>   1
Atom  38C    basis set group =>   1
Atom  39C    basis set group =>   1
Atom  40C    basis set group =>   1
Atom  41C    basis set group =>   1
Atom  42C    basis set group =>   1
Atom  43C    basis set group =>   1
Atom  44C    basis set group =>   1
Atom  45C    basis set group =>   1
Atom  46C    basis set group =>   1
Atom  47C    basis set group =>   1
Atom  48C    basis set group =>   1
Atom  49C    basis set group =>   1
Atom  50C    basis set group =>   1
Atom  51C    basis set group =>   1
Atom  52C    basis set group =>   1
Atom  53C    basis set group =>   1
Atom  54C    basis set group =>   1
Atom  55C    basis set group =>   1
Atom  56C    basis set group =>   1
Atom  57C    basis set group =>   1
Atom  58C    basis set group =>   1
Atom  59C    basis set group =>   1
-------------------------------
AUXILIARY BASIS SET INFORMATION
-------------------------------
There are 1 groups of distinct atoms

 Group   1 Type C   : 12s5p4d2f1g contracted to 6s4p3d1f1g pattern {711111/2111/211/2/1}

Atom   0C    basis set group =>   1
Atom   1C    basis set group =>   1
Atom   2C    basis set group =>   1
Atom   3C    basis set group =>   1
Atom   4C    basis set group =>   1
Atom   5C    basis set group =>   1
Atom   6C    basis set group =>   1
Atom   7C    basis set group =>   1
Atom   8C    basis set group =>   1
Atom   9C    basis set group =>   1
Atom  10C    basis set group =>   1
Atom  11C    basis set group =>   1
Atom  12C    basis set group =>   1
Atom  13C    basis set group =>   1
Atom  14C    basis set group =>   1
Atom  15C    basis set group =>   1
Atom  16C    basis set group =>   1
Atom  17C    basis set group =>   1
Atom  18C    basis set group =>   1
Atom  19C    basis set group =>   1
Atom  20C    basis set group =>   1
Atom  21C    basis set group =>   1
Atom  22C    basis set group =>   1
Atom  23C    basis set group =>   1
Atom  24C    basis set group =>   1
Atom  25C    basis set group =>   1
Atom  26C    basis set group =>   1
Atom  27C    basis set group =>   1
Atom  28C    basis set group =>   1
Atom  29C    basis set group =>   1
Atom  30C    basis set group =>   1
Atom  31C    basis set group =>   1
Atom  32C    basis set group =>   1
Atom  33C    basis set group =>   1
Atom  34C    basis set group =>   1
Atom  35C    basis set group =>   1
Atom  36C    basis set group =>   1
Atom  37C    basis set group =>   1
Atom  38C    basis set group =>   1
Atom  39C    basis set group =>   1
Atom  40C    basis set group =>   1
Atom  41C    basis set group =>   1
Atom  42C    basis set group =>   1
Atom  43C    basis set group =>   1
Atom  44C    basis set group =>   1
Atom  45C    basis set group =>   1
Atom  46C    basis set group =>   1
Atom  47C    basis set group =>   1
Atom  48C    basis set group =>   1
Atom  49C    basis set group =>   1
Atom  50C    basis set group =>   1
Atom  51C    basis set group =>   1
Atom  52C    basis set group =>   1
Atom  53C    basis set group =>   1
Atom  54C    basis set group =>   1
Atom  55C    basis set group =>   1
Atom  56C    basis set group =>   1
Atom  57C    basis set group =>   1
Atom  58C    basis set group =>   1
Atom  59C    basis set group =>   1


           ************************************************************
           *        Program running with 64 parallel MPI-processes    *
           *              working on a common directory               *
           ************************************************************
------------------------------------------------------------------------------
                           ORCA GTO INTEGRAL CALCULATION
                           -- RI-GTO INTEGRALS CHOSEN --
------------------------------------------------------------------------------

                         BASIS SET STATISTICS AND STARTUP INFO

Gaussian basis set:
 # of primitive gaussian shells          ...  720
 # of primitive gaussian functions       ... 1440
 # of contracted shells                  ...  360
 # of contracted basis functions         ...  840
 Highest angular momentum                ...    2
 Maximum contraction depth               ...    5
Auxiliary gaussian basis set:
 # of primitive gaussian shells          ... 1440
 # of primitive gaussian functions       ... 4200
 # of contracted shells                  ...  900
 # of contracted aux-basis functions     ... 2940
 Highest angular momentum                ...    4
 Maximum contraction depth               ...    7
Ratio of auxiliary to basis functions    ...  3.50
Integral package used                  ... LIBINT
 One Electron integrals                  ... done
 Ordering auxiliary basis shells         ... done
 Integral threshhold             Thresh  ...  2.500e-11
 Primitive cut-off               TCut    ...  2.500e-12
 Pre-screening matrix                    ... done
 Shell pair data                         ... 
 Ordering of the shell pairs             ... done (   0.010 sec) 50212 of 64980 pairs
 Determination of significant pairs      ... done (   0.000 sec)
 Creation of shell pair data             ... done (   0.011 sec)
 Storage of shell pair data              ... done (   0.006 sec)
 Shell pair data done in (   0.027 sec)
 Computing two index integrals           ... done
 Cholesky decomposition of the V-matrix  ... done


Timings:
 Total evaluation time                   ...   4.528 sec (  0.075 min)
 One electron matrix time                ...   0.785 sec (  0.013 min) = 17.3%
 Schwartz matrix evaluation time         ...   0.752 sec (  0.013 min) = 16.6%
 Two index repulsion integral time       ...   0.345 sec (  0.006 min) =  7.6%
 Cholesky decomposition of V             ...   2.589 sec (  0.043 min) = 57.2%
 Three index repulsion integral time     ...   0.000 sec (  0.000 min) =  0.0%

           ************************************************************
           *              Shut down parallel processing               *
           ************************************************************


           ************************************************************
           *        Program running with 64 parallel MPI-processes    *
           *              working on a common directory               *
           ************************************************************
-------------------------------------------------------------------------------
                                 ORCA SCF
-------------------------------------------------------------------------------

------------
SCF SETTINGS
------------
Hamiltonian:
 Density Functional     Method          .... DFT(GTOs)
 Exchange Functional    Exchange        .... PBE
   PBE kappa parameter  XKappa          ....  0.804000
 Correlation Functional Correlation     .... PBE
 LDA part of GGA corr.  LDAOpt          .... PW91-LDA
 Gradients option       PostSCFGGA      .... off
 Hybrid DFT is turned on
   Fraction HF Exchange ScalHFX         ....  0.250000
   Scaling of DF-GGA-X  ScalDFX         ....  0.750000
   Scaling of DF-GGA-C  ScalDFC         ....  1.000000
   Scaling of DF-LDA-C  ScalLDAC        ....  1.000000
   Perturbative correction              ....  0.000000
   NL short-range parameter             ....  6.900000
 RI-approximation to the Coulomb term is turned on
   Number of auxiliary basis functions  .... 2940
   RIJ-COSX (HFX calculated with COS-X)).... on


General Settings:
 Integral files         IntName         .... c60_fullerene
 Hartree-Fock type      HFTyp           .... RHF
 Total Charge           Charge          ....    0
 Multiplicity           Mult            ....    1
 Number of Electrons    NEL             ....  360
 Basis Dimension        Dim             ....  840
 Nuclear Repulsion      ENuc            ....   8380.0089623382 Eh

Convergence Acceleration:
 DIIS                   CNVDIIS         .... on
   Start iteration      DIISMaxIt       ....    12
   Startup error        DIISStart       ....  0.200000
   # of expansion vecs  DIISMaxEq       ....     5
   Bias factor          DIISBfac        ....   1.050
   Max. coefficient     DIISMaxC        ....  10.000
 Newton-Raphson         CNVNR           .... off
 SOSCF                  CNVSOSCF        .... on
   Start iteration      SOSCFMaxIt      ....   150
   Startup grad/error   SOSCFStart      ....  0.003300
 Level Shifting         CNVShift        .... on
   Level shift para.    LevelShift      ....    0.2500
[...]
      dyz     :     0.015004
      dx2y2   :     0.019707
      dxy     :     0.024972
 36 C s       :     2.847986  s :     2.847986
      pz      :     1.001265  p :     3.039359
      px      :     1.022328
      py      :     1.015766
      dz2     :     0.015336  d :     0.112370
      dxz     :     0.032193
      dyz     :     0.015403
      dx2y2   :     0.026659
      dxy     :     0.022779
 37 C s       :     2.847950  s :     2.847950
      pz      :     1.008940  p :     3.040140
      px      :     1.032419
      py      :     0.998781
      dz2     :     0.023103  d :     0.112415
      dxz     :     0.029627
      dyz     :     0.015004
      dx2y2   :     0.019707
      dxy     :     0.024973
 38 C s       :     2.848180  s :     2.848180
      pz      :     1.008553  p :     3.038928
      px      :     1.016356
      py      :     1.014019
      dz2     :     0.023074  d :     0.112371
      dxz     :     0.020743
      dyz     :     0.023820
      dx2y2   :     0.024296
      dxy     :     0.020437
 39 C s       :     2.848196  s :     2.848196
      pz      :     1.001377  p :     3.039607
      px      :     1.016420
      py      :     1.021811
      dz2     :     0.015283  d :     0.112255
      dxz     :     0.016978
      dyz     :     0.030562
      dx2y2   :     0.025313
      dxy     :     0.024119
 40 C s       :     2.848305  s :     2.848305
      pz      :     1.008634  p :     3.039381
      px      :     0.987402
      py      :     1.043345
      dz2     :     0.023074  d :     0.112304
      dxz     :     0.012073
      dyz     :     0.032445
      dx2y2   :     0.018805
      dxy     :     0.025907
 41 C s       :     2.848313  s :     2.848313
      pz      :     1.008613  p :     3.039555
      px      :     0.997124
      py      :     1.033818
      dz2     :     0.023046  d :     0.112227
      dxz     :     0.017501
      dyz     :     0.027012
      dx2y2   :     0.026136
      dxy     :     0.018533
 42 C s       :     2.848395  s :     2.848395
      pz      :     1.037884  p :     3.038912
      px      :     0.996715
      py      :     1.004313
      dz2     :     0.030747  d :     0.112238
      dxz     :     0.019654
      dyz     :     0.030406
      dx2y2   :     0.015055
      dxy     :     0.016376
 43 C s       :     2.848243  s :     2.848243
      pz      :     1.038229  p :     3.039664
      px      :     1.019965
      py      :     0.981470
      dz2     :     0.030811  d :     0.112336
      dxz     :     0.033766
      dyz     :     0.016358
      dx2y2   :     0.012474
      dxy     :     0.018929
 44 C s       :     2.848083  s :     2.848083
      pz      :     1.008785  p :     3.039627
      px      :     1.044168
      py      :     0.986675
      dz2     :     0.023062  d :     0.112318
      dxz     :     0.031553
      dyz     :     0.013042
      dx2y2   :     0.022769
      dxy     :     0.021891
 45 C s       :     2.848227  s :     2.848227
      pz      :     1.001374  p :     3.039433
      px      :     1.020133
      py      :     1.017926
      dz2     :     0.015326  d :     0.112288
      dxz     :     0.026371
      dyz     :     0.021180
      dx2y2   :     0.023130
      dxy     :     0.026281
 46 C s       :     2.848543  s :     2.848543
      pz      :     0.984257  p :     3.039535
      px      :     1.025845
      py      :     1.029434
      dz2     :     0.011736  d :     0.112191
      dxz     :     0.015563
      dyz     :     0.017125
      dx2y2   :     0.039680
      dxy     :     0.028086
 47 C s       :     2.848237  s :     2.848237
      pz      :     0.983918  p :     3.039180
      px      :     1.031891
      py      :     1.023371
      dz2     :     0.011726  d :     0.112252
      dxz     :     0.018373
      dyz     :     0.014313
      dx2y2   :     0.031706
      dxy     :     0.036133
 48 C s       :     2.848238  s :     2.848238
      pz      :     0.984343  p :     3.039941
      px      :     1.022362
      py      :     1.033236
      dz2     :     0.011770  d :     0.112347
      dxz     :     0.013868
      dyz     :     0.018847
      dx2y2   :     0.026777
      dxy     :     0.041085
 49 C s       :     2.848238  s :     2.848238
      pz      :     0.983919  p :     3.039181
      px      :     1.031891
      py      :     1.023371
      dz2     :     0.011726  d :     0.112251
      dxz     :     0.018373
      dyz     :     0.014313
      dx2y2   :     0.031706
      dxy     :     0.036133
 50 C s       :     2.848542  s :     2.848542
      pz      :     0.984256  p :     3.039534
      px      :     1.025845
      py      :     1.029433
      dz2     :     0.011736  d :     0.112191
      dxz     :     0.015563
      dyz     :     0.017125
      dx2y2   :     0.039680
      dxy     :     0.028086
 51 C s       :     2.848227  s :     2.848227
      pz      :     1.001376  p :     3.039436
      px      :     1.020133
      py      :     1.017927
      dz2     :     0.015327  d :     0.112288
      dxz     :     0.026371
      dyz     :     0.021180
      dx2y2   :     0.023130
      dxy     :     0.026281
 52 C s       :     2.848082  s :     2.848082
      pz      :     1.008784  p :     3.039626
      px      :     1.044168
      py      :     0.986673
      dz2     :     0.023062  d :     0.112318
      dxz     :     0.031554
      dyz     :     0.013042
      dx2y2   :     0.022769
      dxy     :     0.021891
 53 C s       :     2.848243  s :     2.848243
      pz      :     1.038229  p :     3.039665
      px      :     1.019965
      py      :     0.981471
      dz2     :     0.030811  d :     0.112336
      dxz     :     0.033766
      dyz     :     0.016357
      dx2y2   :     0.012474
      dxy     :     0.018929
 54 C s       :     2.847939  s :     2.847939
      pz      :     1.038299  p :     3.039354
      px      :     1.026081
      py      :     0.974974
      dz2     :     0.030856  d :     0.112505
      dxz     :     0.030472
      dyz     :     0.019722
      dx2y2   :     0.018135
      dxy     :     0.013319
 55 C s       :     2.847939  s :     2.847939
      pz      :     1.038299  p :     3.039354
      px      :     1.026081
      py      :     0.974975
      dz2     :     0.030856  d :     0.112505
      dxz     :     0.030472
      dyz     :     0.019722
      dx2y2   :     0.018135
      dxy     :     0.013319
 56 C s       :     2.847950  s :     2.847950
      pz      :     1.008939  p :     3.040141
      px      :     1.032419
      py      :     0.998783
      dz2     :     0.023103  d :     0.112414
      dxz     :     0.029627
      dyz     :     0.015004
      dx2y2   :     0.019707
      dxy     :     0.024972
 57 C s       :     2.847986  s :     2.847986
      pz      :     1.001266  p :     3.039358
      px      :     1.022327
      py      :     1.015765
      dz2     :     0.015336  d :     0.112370
      dxz     :     0.032193
      dyz     :     0.015403
      dx2y2   :     0.026659
      dxy     :     0.022779
 58 C s       :     2.847950  s :     2.847950
      pz      :     1.008939  p :     3.040140
      px      :     1.032419
      py      :     0.998782
      dz2     :     0.023103  d :     0.112415
      dxz     :     0.029628
      dyz     :     0.015004
      dx2y2   :     0.019707
      dxy     :     0.024973
 59 C s       :     2.848181  s :     2.848181
      pz      :     1.008553  p :     3.038928
      px      :     1.016356
      py      :     1.014019
      dz2     :     0.023074  d :     0.112371
      dxz     :     0.020743
      dyz     :     0.023820
      dx2y2   :     0.024296
      dxy     :     0.020437


                      *****************************
                      * MAYER POPULATION ANALYSIS *
                      *****************************

  NA   - Mulliken gross atomic population
  ZA   - Total nuclear charge
  QA   - Mulliken gross atomic charge
  VA   - Mayer's total valence
  BVA  - Mayer's bonded valence
  FA   - Mayer's free valence

  ATOM       NA         ZA         QA         VA         BVA        FA
  0 C      6.0077     6.0000    -0.0077     3.9840     3.9840    -0.0000
  1 C      5.9932     6.0000     0.0068     3.9762     3.9762    -0.0000
  2 C      6.0064     6.0000    -0.0064     3.9805     3.9805    -0.0000
  3 C      6.0064     6.0000    -0.0064     3.9804     3.9804     0.0000
  4 C      5.9933     6.0000     0.0067     3.9763     3.9763    -0.0000
  5 C      5.9988     6.0000     0.0012     3.9739     3.9739     0.0000
  6 C      6.0020     6.0000    -0.0020     3.9836     3.9836     0.0000
  7 C      6.0010     6.0000    -0.0010     3.9808     3.9808     0.0000
  8 C      5.9996     6.0000     0.0004     3.9794     3.9794     0.0000
  9 C      5.9964     6.0000     0.0036     3.9797     3.9797    -0.0000
 10 C      5.9964     6.0000     0.0036     3.9797     3.9797    -0.0000
 11 C      5.9997     6.0000     0.0003     3.9794     3.9794    -0.0000
 12 C      6.0011     6.0000    -0.0011     3.9808     3.9808    -0.0000
 13 C      6.0020     6.0000    -0.0020     3.9837     3.9837    -0.0000
 14 C      5.9988     6.0000     0.0012     3.9739     3.9739     0.0000
 15 C      5.9962     6.0000     0.0038     3.9789     3.9789    -0.0000
 16 C      6.0030     6.0000    -0.0030     3.9781     3.9781     0.0000
 17 C      5.9989     6.0000     0.0011     3.9803     3.9803    -0.0000
 18 C      5.9990     6.0000     0.0010     3.9804     3.9804    -0.0000
 19 C      6.0030     6.0000    -0.0030     3.9782     3.9782    -0.0000
 20 C      5.9935     6.0000     0.0065     3.9776     3.9776    -0.0000
 21 C      6.0067     6.0000    -0.0067     3.9806     3.9806    -0.0000
 22 C      5.9978     6.0000     0.0022     3.9810     3.9810     0.0000
 23 C      5.9978     6.0000     0.0022     3.9809     3.9809     0.0000
 24 C      6.0067     6.0000    -0.0067     3.9805     3.9805     0.0000
 25 C      5.9935     6.0000     0.0065     3.9774     3.9774    -0.0000
 26 C      6.0031     6.0000    -0.0031     3.9781     3.9781     0.0000
 27 C      5.9989     6.0000     0.0011     3.9804     3.9804     0.0000
 28 C      5.9990     6.0000     0.0010     3.9804     3.9804     0.0000
 29 C      6.0030     6.0000    -0.0030     3.9781     3.9781    -0.0000
 30 C      5.9936     6.0000     0.0064     3.9776     3.9776    -0.0000
 31 C      6.0010     6.0000    -0.0010     3.9808     3.9808    -0.0000
 32 C      6.0020     6.0000    -0.0020     3.9838     3.9838    -0.0000
 33 C      5.9989     6.0000     0.0011     3.9738     3.9738    -0.0000
 34 C      5.9959     6.0000     0.0041     3.9788     3.9788     0.0000
 35 C      6.0038     6.0000    -0.0038     3.9742     3.9742     0.0000
 36 C      5.9977     6.0000     0.0023     3.9868     3.9868     0.0000
 37 C      6.0037     6.0000    -0.0037     3.9741     3.9741     0.0000
 38 C      5.9960     6.0000     0.0040     3.9789     3.9789     0.0000
 39 C      5.9989     6.0000     0.0011     3.9739     3.9739     0.0000
 40 C      6.0019     6.0000    -0.0019     3.9838     3.9838    -0.0000
 41 C      6.0010     6.0000    -0.0010     3.9809     3.9809     0.0000
 42 C      5.9935     6.0000     0.0065     3.9775     3.9775    -0.0000
 43 C      6.0067     6.0000    -0.0067     3.9804     3.9804    -0.0000
 44 C      5.9964     6.0000     0.0036     3.9798     3.9798     0.0000
 45 C      5.9997     6.0000     0.0003     3.9795     3.9795     0.0000
 46 C      6.0064     6.0000    -0.0064     3.9803     3.9803     0.0000
 47 C      5.9932     6.0000     0.0068     3.9762     3.9762     0.0000
 48 C      6.0078     6.0000    -0.0078     3.9842     3.9842    -0.0000
 49 C      5.9932     6.0000     0.0068     3.9762     3.9762    -0.0000
 50 C      6.0064     6.0000    -0.0064     3.9803     3.9803    -0.0000
 51 C      5.9997     6.0000     0.0003     3.9795     3.9795    -0.0000
 52 C      5.9963     6.0000     0.0037     3.9799     3.9799    -0.0000
 53 C      6.0066     6.0000    -0.0066     3.9805     3.9805    -0.0000
 54 C      5.9979     6.0000     0.0021     3.9810     3.9810    -0.0000
 55 C      5.9978     6.0000     0.0022     3.9809     3.9809     0.0000
 56 C      6.0038     6.0000    -0.0038     3.9741     3.9741     0.0000
 57 C      5.9976     6.0000     0.0024     3.9868     3.9868     0.0000
 58 C      6.0037     6.0000    -0.0037     3.9741     3.9741     0.0000
 59 C      5.9961     6.0000     0.0039     3.9790     3.9790     0.0000

  Mayer bond orders larger than 0.1
B(  0-C ,  1-C ) :   1.1874 B(  0-C ,  4-C ) :   1.1874 B(  0-C , 57-C ) :   1.4377 
B(  1-C ,  2-C ) :   1.1887 B(  1-C , 14-C ) :   1.4333 B(  2-C ,  3-C ) :   1.1929 
B(  2-C , 11-C ) :   1.4308 B(  3-C ,  4-C ) :   1.1888 B(  3-C ,  8-C ) :   1.4308 
B(  4-C ,  5-C ) :   1.4334 B(  5-C ,  6-C ) :   1.1855 B(  5-C , 59-C ) :   1.1875 
B(  6-C ,  7-C ) :   1.4375 B(  6-C , 28-C ) :   1.1904 B(  7-C ,  8-C ) :   1.1893 
B(  7-C , 25-C ) :   1.1860 B(  8-C ,  9-C ) :   1.1893 B(  9-C , 10-C ) :   1.4354 
B(  9-C , 24-C ) :   1.1864 B( 10-C , 11-C ) :   1.1893 B( 10-C , 21-C ) :   1.1864 
B( 11-C , 12-C ) :   1.1893 B( 12-C , 13-C ) :   1.4375 B( 12-C , 20-C ) :   1.1860 
B( 13-C , 14-C ) :   1.1855 B( 13-C , 17-C ) :   1.1904 B( 14-C , 15-C ) :   1.1875 
B( 15-C , 16-C ) :   1.1900 B( 15-C , 56-C ) :   1.4324 B( 16-C , 17-C ) :   1.1868 
B( 16-C , 42-C ) :   1.4339 B( 17-C , 18-C ) :   1.4347 B( 18-C , 19-C ) :   1.1868 
B( 18-C , 40-C ) :   1.1904 B( 19-C , 20-C ) :   1.4339 B( 19-C , 38-C ) :   1.1900 
B( 20-C , 21-C ) :   1.1893 B( 21-C , 22-C ) :   1.4348 B( 22-C , 23-C ) :   1.1921 
B( 22-C , 37-C ) :   1.1853 B( 23-C , 24-C ) :   1.4348 B( 23-C , 35-C ) :   1.1853 
B( 24-C , 25-C ) :   1.1893 B( 25-C , 26-C ) :   1.4339 B( 26-C , 27-C ) :   1.1868 
B( 26-C , 34-C ) :   1.1900 B( 27-C , 28-C ) :   1.4347 B( 27-C , 32-C ) :   1.1904 
B( 28-C , 29-C ) :   1.1868 B( 29-C , 30-C ) :   1.4339 B( 29-C , 59-C ) :   1.1900 
B( 30-C , 31-C ) :   1.1860 B( 30-C , 53-C ) :   1.1893 B( 31-C , 32-C ) :   1.4375 
B( 31-C , 51-C ) :   1.1894 B( 32-C , 33-C ) :   1.1855 B( 33-C , 34-C ) :   1.1875 
B( 33-C , 49-C ) :   1.4333 B( 34-C , 35-C ) :   1.4325 B( 35-C , 36-C ) :   1.1892 
B( 36-C , 37-C ) :   1.1892 B( 36-C , 48-C ) :   1.4378 B( 37-C , 38-C ) :   1.4324 
B( 38-C , 39-C ) :   1.1875 B( 39-C , 40-C ) :   1.1855 B( 39-C , 47-C ) :   1.4333 
B( 40-C , 41-C ) :   1.4375 B( 41-C , 42-C ) :   1.1860 B( 41-C , 45-C ) :   1.1893 
B( 42-C , 43-C ) :   1.1893 B( 43-C , 44-C ) :   1.1864 B( 43-C , 55-C ) :   1.4348 
B( 44-C , 45-C ) :   1.1893 B( 44-C , 52-C ) :   1.4355 B( 45-C , 46-C ) :   1.4308 
B( 46-C , 47-C ) :   1.1887 B( 46-C , 50-C ) :   1.1928 B( 47-C , 48-C ) :   1.1874 
B( 48-C , 49-C ) :   1.1874 B( 49-C , 50-C ) :   1.1887 B( 50-C , 51-C ) :   1.4308 
B( 51-C , 52-C ) :   1.1893 B( 52-C , 53-C ) :   1.1864 B( 53-C , 54-C ) :   1.4348 
B( 54-C , 55-C ) :   1.1921 B( 54-C , 58-C ) :   1.1853 B( 55-C , 56-C ) :   1.1853 
B( 56-C , 57-C ) :   1.1892 B( 57-C , 58-C ) :   1.1892 B( 58-C , 59-C ) :   1.4325 


-------
TIMINGS
-------

Total SCF time: 0 days 0 hours 2 min 46 sec 

Total time                  ....     166.083 sec
Sum of individual times     ....     168.259 sec  (101.3%)

Fock matrix formation       ....     119.756 sec  ( 72.1%)
  Coulomb formation         ....      54.648 sec  ( 45.6% of F)
  Split-RI-J                ....      13.873 sec  ( 11.6% of F)
  Chain of spheres X        ....      24.242 sec  ( 20.2% of F)
  COS-X 1 center corr.      ....       0.000 sec  (  0.0% of F)
  XC integration            ....      55.261 sec  ( 46.1% of F)
    Basis function eval.    ....       0.255 sec  (  0.5% of XC)
    Density eval.           ....       0.375 sec  (  0.7% of XC)
    XC-Functional eval.     ....       0.016 sec  (  0.0% of XC)
    XC-Potential eval.      ....       0.392 sec  (  0.7% of XC)
Diagonalization             ....       0.547 sec  (  0.3%)
Density matrix formation    ....       1.874 sec  (  1.1%)
Population analysis         ....       2.182 sec  (  1.3%)
Initial guess               ....      23.829 sec  ( 14.3%)
Orbital Transformation      ....       0.000 sec  (  0.0%)
Orbital Orthonormalization  ....      23.591 sec  ( 14.2%)
DIIS solution               ....       0.177 sec  (  0.1%)
SOSCF solution              ....       2.894 sec  (  1.7%)
Grid generation             ....      16.999 sec  ( 10.2%)
           ************************************************************
           *              Shut down parallel processing               *
           ************************************************************


-------------------------------------------------------------------------------
                          DFT DISPERSION CORRECTION                            
                                                                               
                                DFTD3 V2.1  Rev 6                               
                          USING Becke-Johnson damping                          
-------------------------------------------------------------------------------
The default PBE0 functional is recognized
Active option DFTDOPT                   ...         4   

molecular C6(AA) [au] = 84133.821451 


            DFT-D V3
 parameters
 s6 scaling factor         :     1.0000 
 a1 scaling factor         :     0.4145 
 s8 scaling factor         :     1.2177 
 a2 scaling factor         :     4.8593 
 ad hoc parameters k1-k3   :    16.0000     1.3333    -4.0000 

 Edisp/kcal,au: -107.276937422239  -0.170956663466 
 E6   /kcal   : -64.751916341 
 E8   /kcal   : -42.525021081 
 % E8         :  39.640413031 

-------------------------   ----------------
Dispersion correction           -0.170956663
-------------------------   ----------------


-------------------------   --------------------
FINAL SINGLE POINT ENERGY     -2282.248905045622
-------------------------   --------------------

                                *** OPTIMIZATION RUN DONE ***

                            ***************************************
                            *     ORCA property calculations      *
                            ***************************************

                                    ---------------------
                                    Active property flags
                                    ---------------------
   (+) Dipole Moment


------------------------------------------------------------------------------
                       ORCA ELECTRIC PROPERTIES CALCULATION
------------------------------------------------------------------------------

Dipole Moment Calculation                       ... on
Quadrupole Moment Calculation                   ... off
Polarizability Calculation                      ... off
GBWName                                         ... c60_fullerene.gbw
Electron density file                           ... c60_fullerene.scfp.tmp

-------------
DIPOLE MOMENT
-------------
                                X             Y             Z
Electronic contribution:      0.00000       0.00000       0.00001
Nuclear contribution   :     -0.00000      -0.00000       0.00000
                        -----------------------------------------
Total Dipole Moment    :      0.00000       0.00000       0.00001
                        -----------------------------------------
Magnitude (a.u.)       :      0.00001
Magnitude (Debye)      :      0.00002


Timings for individual modules:

Sum of individual times         ...     1271.625 sec (=  21.194 min)
GTO integral calculation        ...       80.080 sec (=   1.335 min)   6.3 %
SCF iterations                  ...      885.807 sec (=  14.763 min)  69.7 %
SCF Gradient evaluation         ...      278.318 sec (=   4.639 min)  21.9 %
Geometry relaxation             ...       27.420 sec (=   0.457 min)   2.2 %
                             ****ORCA TERMINATED NORMALLY****
TOTAL RUN TIME: 0 days 0 hours 21 minutes 36 seconds 59 msec
